  51  51   0   0
  0.3231811E+02  0.1011850E-08  0.1011850E-08  0.1858888E-08  0.1500000E-16
  1.000000000000000E-004
  CAR 
 Bulk Frequency (Finite Difference)      
      7.43440201    -16.55776737  301     -0.45472659      1.00000000
    -16.558  0.0000E+00  0.0000E+00
    -16.478  0.0000E+00  0.0000E+00
    -16.398  0.0000E+00  0.0000E+00
    -16.318 -0.3449E-32 -0.2758E-33
    -16.238 -0.1337E-26 -0.1070E-27
    -16.158 -0.1428E-21 -0.1142E-22
    -16.078 -0.4184E-17 -0.3346E-18
    -15.998 -0.3236E-13 -0.2588E-14
    -15.918 -0.6955E-10 -0.5565E-11
    -15.838 -0.3985E-07 -0.3193E-08
    -15.758 -0.5902E-05 -0.4752E-06
    -15.678 -0.2073E-03 -0.1706E-04
    -15.598 -0.1115E-02 -0.1063E-03
    -15.518  0.6136E-02  0.3844E-03
    -15.438  0.2350E-01  0.2264E-02
    -15.358  0.1147E-01  0.3181E-02
    -15.278 -0.8052E-03  0.3116E-02
    -15.198 -0.4143E-03  0.3083E-02
    -15.118 -0.1818E-04  0.3082E-02
    -15.038 -0.1797E-06  0.3082E-02
    -14.958 -0.4525E-09  0.3082E-02
    -14.878 -0.3019E-12  0.3082E-02
    -14.798 -0.5894E-16  0.3082E-02
    -14.718  0.0000E+00  0.3082E-02
    -14.638  0.0000E+00  0.3082E-02
    -14.558  0.0000E+00  0.3082E-02
    -14.478  0.0000E+00  0.3082E-02
    -14.398  0.0000E+00  0.3082E-02
    -14.318  0.0000E+00  0.3082E-02
    -14.239  0.0000E+00  0.3082E-02
    -14.159  0.0000E+00  0.3082E-02
    -14.079  0.0000E+00  0.3082E-02
    -13.999  0.0000E+00  0.3082E-02
    -13.919  0.0000E+00  0.3082E-02
    -13.839  0.0000E+00  0.3082E-02
    -13.759  0.0000E+00  0.3082E-02
    -13.679  0.0000E+00  0.3082E-02
    -13.599  0.0000E+00  0.3082E-02
    -13.519  0.0000E+00  0.3082E-02
    -13.439  0.0000E+00  0.3082E-02
    -13.359  0.0000E+00  0.3082E-02
    -13.279  0.0000E+00  0.3082E-02
    -13.199  0.0000E+00  0.3082E-02
    -13.119  0.0000E+00  0.3082E-02
    -13.039  0.0000E+00  0.3082E-02
    -12.959  0.0000E+00  0.3082E-02
    -12.879  0.0000E+00  0.3082E-02
    -12.799  0.0000E+00  0.3082E-02
    -12.719  0.0000E+00  0.3082E-02
    -12.639  0.0000E+00  0.3082E-02
    -12.559  0.0000E+00  0.3082E-02
    -12.479  0.0000E+00  0.3082E-02
    -12.399  0.0000E+00  0.3082E-02
    -12.319  0.0000E+00  0.3082E-02
    -12.239  0.0000E+00  0.3082E-02
    -12.159  0.0000E+00  0.3082E-02
    -12.079  0.0000E+00  0.3082E-02
    -11.999  0.0000E+00  0.3082E-02
    -11.919  0.0000E+00  0.3082E-02
    -11.839  0.0000E+00  0.3082E-02
    -11.759  0.0000E+00  0.3082E-02
    -11.679  0.0000E+00  0.3082E-02
    -11.599  0.0000E+00  0.3082E-02
    -11.519  0.0000E+00  0.3082E-02
    -11.439  0.0000E+00  0.3082E-02
    -11.359  0.0000E+00  0.3082E-02
    -11.279  0.0000E+00  0.3082E-02
    -11.200  0.0000E+00  0.3082E-02
    -11.120  0.0000E+00  0.3082E-02
    -11.040  0.0000E+00  0.3082E-02
    -10.960  0.0000E+00  0.3082E-02
    -10.880  0.0000E+00  0.3082E-02
    -10.800  0.0000E+00  0.3082E-02
    -10.720  0.0000E+00  0.3082E-02
    -10.640  0.0000E+00  0.3082E-02
    -10.560  0.0000E+00  0.3082E-02
    -10.480  0.0000E+00  0.3082E-02
    -10.400  0.0000E+00  0.3082E-02
    -10.320  0.0000E+00  0.3082E-02
    -10.240  0.0000E+00  0.3082E-02
    -10.160  0.0000E+00  0.3082E-02
    -10.080 -0.2822E-31  0.3082E-02
    -10.000 -0.7215E-26  0.3082E-02
     -9.920 -0.5073E-21  0.3082E-02
     -9.840 -0.9546E-17  0.3082E-02
     -9.760 -0.4953E-13  0.3082E-02
     -9.680 -0.6959E-10  0.3082E-02
     -9.600 -0.2588E-07  0.3082E-02
     -9.520 -0.2443E-05  0.3081E-02
     -9.440 -0.5134E-04  0.3077E-02
     -9.360 -0.7350E-04  0.3071E-02
     -9.280  0.1357E-02  0.3180E-02
     -9.200  0.2104E-02  0.3348E-02
     -9.120  0.9025E-03  0.3420E-02
     -9.040  0.1122E-01  0.4318E-02
     -8.960  0.1367E-01  0.5411E-02
     -8.880  0.1520E-02  0.5533E-02
     -8.800 -0.8134E-03  0.5468E-02
     -8.720 -0.6852E-03  0.5413E-02
     -8.640  0.5330E-02  0.5839E-02
     -8.560  0.1504E-01  0.7042E-02
     -8.480  0.6484E-02  0.7560E-02
     -8.400  0.9702E-02  0.8336E-02
     -8.320  0.1423E-01  0.9474E-02
     -8.240  0.2177E-02  0.9648E-02
     -8.161 -0.6757E-03  0.9594E-02
     -8.081 -0.9139E-04  0.9587E-02
     -8.001 -0.2914E-03  0.9563E-02
     -7.921 -0.1099E-02  0.9475E-02
     -7.841  0.7546E-02  0.1008E-01
     -7.761  0.2769E-01  0.1229E-01
     -7.681  0.1928E-01  0.1384E-01
     -7.601  0.2726E-02  0.1405E-01
     -7.521 -0.1735E-02  0.1391E-01
     -7.441  0.6394E-02  0.1443E-01
     -7.361  0.3260E-01  0.1703E-01
     -7.281  0.2227E-01  0.1881E-01
     -7.201  0.1140E-02  0.1891E-01
     -7.121 -0.8459E-03  0.1884E-01
     -7.041 -0.6447E-03  0.1879E-01
     -6.961 -0.3172E-03  0.1876E-01
     -6.881  0.1272E-01  0.1978E-01
     -6.801  0.2700E-01  0.2194E-01
     -6.721  0.2006E-01  0.2354E-01
     -6.641  0.3500E-01  0.2634E-01
     -6.561  0.2959E-01  0.2871E-01
     -6.481  0.1146E-02  0.2880E-01
     -6.401  0.2008E-02  0.2896E-01
     -6.321  0.1729E-01  0.3034E-01
     -6.241  0.2503E-01  0.3234E-01
     -6.161  0.1502E-01  0.3355E-01
     -6.081 -0.2859E-04  0.3354E-01
     -6.001  0.5406E-02  0.3398E-01
     -5.921  0.1418E-01  0.3511E-01
     -5.841  0.1694E-01  0.3646E-01
     -5.761  0.4902E-01  0.4038E-01
     -5.681  0.6300E-01  0.4542E-01
     -5.601  0.3576E-01  0.4828E-01
     -5.521  0.2685E-01  0.5043E-01
     -5.441  0.1716E-01  0.5180E-01
     -5.361  0.1997E-01  0.5340E-01
     -5.281  0.7990E-01  0.5979E-01
     -5.201  0.8010E-01  0.6620E-01
     -5.121  0.7769E-01  0.7241E-01
     -5.042  0.1125E+00  0.8141E-01
     -4.962  0.9328E-01  0.8887E-01
     -4.882  0.7326E-01  0.9473E-01
     -4.802  0.7678E-01  0.1009E+00
     -4.722  0.1017E+00  0.1090E+00
     -4.642  0.1595E+00  0.1218E+00
     -4.562  0.1587E+00  0.1344E+00
     -4.482  0.1383E+00  0.1455E+00
     -4.402  0.1368E+00  0.1564E+00
     -4.322  0.1408E+00  0.1677E+00
     -4.242  0.1170E+00  0.1771E+00
     -4.162  0.1305E+00  0.1875E+00
     -4.082  0.1052E+00  0.1959E+00
     -4.002  0.1344E+00  0.2067E+00
     -3.922  0.2468E+00  0.2264E+00
     -3.842  0.2108E+00  0.2433E+00
     -3.762  0.1328E+00  0.2539E+00
     -3.682  0.1507E+00  0.2659E+00
     -3.602  0.2330E+00  0.2846E+00
     -3.522  0.2635E+00  0.3057E+00
     -3.442  0.2164E+00  0.3230E+00
     -3.362  0.2774E+00  0.3451E+00
     -3.282  0.3378E+00  0.3722E+00
     -3.202  0.3569E+00  0.4007E+00
     -3.122  0.3604E+00  0.4295E+00
     -3.042  0.3074E+00  0.4541E+00
     -2.962  0.2049E+00  0.4705E+00
     -2.882  0.1724E+00  0.4843E+00
     -2.802  0.1979E+00  0.5001E+00
     -2.722  0.2535E+00  0.5204E+00
     -2.642  0.3396E+00  0.5476E+00
     -2.562  0.3700E+00  0.5771E+00
     -2.482  0.2882E+00  0.6002E+00
     -2.402  0.2407E+00  0.6194E+00
     -2.322  0.2496E+00  0.6394E+00
     -2.242  0.2986E+00  0.6633E+00
     -2.162  0.3862E+00  0.6942E+00
     -2.082  0.4730E+00  0.7320E+00
     -2.003  0.3715E+00  0.7617E+00
     -1.923  0.1532E+00  0.7740E+00
     -1.843  0.8241E-01  0.7805E+00
     -1.763  0.5574E-01  0.7850E+00
     -1.683  0.4661E-01  0.7887E+00
     -1.603  0.4603E-01  0.7924E+00
     -1.523  0.5427E-01  0.7968E+00
     -1.443  0.4146E-01  0.8001E+00
     -1.363  0.2217E-01  0.8018E+00
     -1.283  0.2291E-01  0.8037E+00
     -1.203  0.1339E-01  0.8047E+00
     -1.123  0.1474E-01  0.8059E+00
     -1.043  0.1861E-01  0.8074E+00
     -0.963  0.1960E-01  0.8090E+00
     -0.883  0.2784E-01  0.8112E+00
     -0.803  0.3584E-01  0.8141E+00
     -0.723  0.1939E-01  0.8156E+00
     -0.643  0.1652E-01  0.8169E+00
     -0.563  0.2269E-01  0.8188E+00
     -0.483  0.4152E-01  0.8221E+00
     -0.403  0.8304E-01  0.8287E+00
     -0.323  0.4164E-01  0.8321E+00
     -0.243  0.2013E-01  0.8337E+00
     -0.163  0.2945E-01  0.8360E+00
     -0.083  0.2040E-01  0.8376E+00
     -0.003  0.1708E-01  0.8390E+00
      0.077  0.1768E-01  0.8404E+00
      0.157  0.4943E-02  0.8408E+00
      0.237  0.4135E-02  0.8412E+00
      0.317  0.1303E-01  0.8422E+00
      0.397  0.1266E-01  0.8432E+00
      0.477  0.7278E-02  0.8438E+00
      0.557  0.2348E-01  0.8457E+00
      0.637  0.3539E-01  0.8485E+00
      0.717  0.4893E-01  0.8524E+00
      0.797  0.4069E-01  0.8557E+00
      0.877  0.1973E-01  0.8572E+00
      0.957  0.3867E-01  0.8603E+00
      1.036  0.3987E-01  0.8635E+00
      1.116  0.1396E-01  0.8646E+00
      1.196  0.1938E-01  0.8662E+00
      1.276  0.2765E-01  0.8684E+00
      1.356  0.2517E-01  0.8704E+00
      1.436  0.1631E-01  0.8717E+00
      1.516  0.1062E-01  0.8726E+00
      1.596  0.1410E-01  0.8737E+00
      1.676  0.2007E-01  0.8753E+00
      1.756  0.4707E-01  0.8791E+00
      1.836  0.3379E-01  0.8818E+00
      1.916  0.2021E-01  0.8834E+00
      1.996  0.3855E-01  0.8865E+00
      2.076  0.2845E-01  0.8887E+00
      2.156  0.1194E-01  0.8897E+00
      2.236  0.8570E-02  0.8904E+00
      2.316  0.1198E-01  0.8913E+00
      2.396  0.2414E-01  0.8933E+00
      2.476  0.1808E-01  0.8947E+00
      2.556  0.1262E-01  0.8957E+00
      2.636  0.2373E-01  0.8976E+00
      2.716  0.2348E-01  0.8995E+00
      2.796  0.1544E-01  0.9007E+00
      2.876  0.1846E-01  0.9022E+00
      2.956  0.9858E-02  0.9030E+00
      3.036  0.6226E-02  0.9035E+00
      3.116  0.1770E-01  0.9049E+00
      3.196  0.2113E-01  0.9066E+00
      3.276  0.1867E-01  0.9081E+00
      3.356  0.1612E-01  0.9094E+00
      3.436  0.1216E-01  0.9104E+00
      3.516  0.1279E-01  0.9114E+00
      3.596  0.2275E-01  0.9132E+00
      3.676  0.3400E-01  0.9159E+00
      3.756  0.2877E-01  0.9182E+00
      3.836  0.2418E-01  0.9202E+00
      3.916  0.2056E-01  0.9218E+00
      3.996  0.1174E-01  0.9227E+00
      4.075  0.1442E-01  0.9239E+00
      4.155  0.2938E-02  0.9241E+00
      4.235  0.6999E-02  0.9247E+00
      4.315  0.2885E-01  0.9270E+00
      4.395  0.2175E-01  0.9287E+00
      4.475  0.2626E-01  0.9308E+00
      4.555  0.4595E-01  0.9345E+00
      4.635  0.4854E-01  0.9384E+00
      4.715  0.3691E-01  0.9413E+00
      4.795  0.1748E-01  0.9427E+00
      4.875  0.1588E-01  0.9440E+00
      4.955  0.2576E-01  0.9461E+00
      5.035  0.4273E-01  0.9495E+00
      5.115  0.6783E-01  0.9549E+00
      5.195  0.5906E-01  0.9596E+00
      5.275  0.3572E-01  0.9625E+00
      5.355  0.3526E-01  0.9653E+00
      5.435  0.4090E-01  0.9686E+00
      5.515  0.3462E-01  0.9714E+00
      5.595  0.3862E-01  0.9744E+00
      5.675  0.3378E-01  0.9771E+00
      5.755  0.2434E-01  0.9791E+00
      5.835  0.4506E-01  0.9827E+00
      5.915  0.6912E-01  0.9882E+00
      5.995  0.5382E-01  0.9925E+00
      6.075  0.1476E-01  0.9937E+00
      6.155  0.1516E-01  0.9949E+00
      6.235  0.2170E-01  0.9967E+00
      6.315  0.1684E-01  0.9980E+00
      6.395  0.5966E-02  0.9985E+00
      6.475  0.7614E-04  0.9985E+00
      6.555 -0.2770E-03  0.9985E+00
      6.635 -0.2940E-04  0.9985E+00
      6.715 -0.7234E-06  0.9985E+00
      6.795 -0.4629E-08  0.9985E+00
      6.875 -0.7906E-11  0.9985E+00
      6.955 -0.3645E-14  0.9985E+00
      7.035  0.0000E+00  0.9985E+00
      7.115  0.0000E+00  0.9985E+00
      7.194  0.0000E+00  0.9985E+00
      7.274  0.0000E+00  0.9985E+00
      7.354  0.0000E+00  0.9985E+00
      7.434  0.0000E+00  0.9985E+00
