  51   51
1 1
     8.718449404102715    -0.587244329166945     0.370524185535547
    -0.587244329166945     7.452941210326010    -0.155861519274304
     0.370524185535547    -0.155861519274304     3.937294659722146
1 2
    -0.495186163033416     0.886275894585402     0.075950327847485
     1.004853827103716    -1.541684462832001    -0.172966810778794
    -0.587259472034816     0.071620544069574    -0.095672389602677
1 3
    -0.028383249161063     0.058544430655140    -0.016079510410794
     0.084830972433954    -0.108101436624613    -0.002729652738447
     0.030448591774231    -0.003318318726540     0.029806330330193
1 4
    -0.445442601299905     0.925696658974056    -0.066414291411286
     0.815545667424069    -1.455649892410318     0.123571402402224
     0.119570497585730    -0.166747189810329    -0.061170722400029
1 5
    -2.679975411160381     0.044103454470359    -0.425812545987449
    -0.068230876538560     0.009436177750852    -0.035201231817189
    -0.054367159789441    -0.047598056043533     0.075016046180859
1 6
    -0.414765574267679    -0.770776119173321    -0.120850888946154
    -0.784168534960592    -1.317806467043483    -0.146921899665676
     0.069655073142154     0.126732247263272    -0.105544265415350
1 7
    -0.029145951526381     0.017439448628988     0.001762433254137
     0.048877209765718    -0.095252754837165     0.006946712633514
    -0.003794346634438     0.021666004017437    -0.007021111332220
1 8
    -0.064124244655403     0.033696219516622    -0.005691391247680
     0.061663448023839    -0.028610142571419    -0.015585419744808
    -0.014426329932254     0.006617318856190     0.013027892324540
1 9
    -0.010990344570153     0.009320739384137    -0.025422524683161
     0.044903124777880     0.015696138965715    -0.024530236914026
     0.062979535887183    -0.003063924266480     0.012715820282408
1 10
    -0.062839552762105    -0.040337344708359     0.031302754565414
    -0.004803175204350    -0.018723591905335    -0.011862338712273
    -0.023189879900835     0.001572778194339    -0.021930489389277
1 11
    -0.018522519892786    -0.029857177501225     0.005370039518833
    -0.039152217691331    -0.081760347760451     0.003037967664495
     0.010056978131805     0.000537582209750     0.011201692100186
1 12
    -0.087544543675529    -0.017641168061540    -0.009949366006898
    -0.011612236984846    -0.040789420676211    -0.014690890706424
    -0.028427819738166     0.012422770428007     0.009070447850846
1 13
    -2.353292165584246     0.014258164536426     0.103944056373476
     0.000921978086481     0.054128919628503     0.004257049130619
    -0.099008765887143     0.014371301832044    -0.096642073963145
1 14
    -0.095101856574841     0.043492258786164     0.015038713853163
     0.048011448016161    -0.044532225918168     0.007783847498582
     0.009515802611032    -0.021614699232266    -0.008703688319027
1 15
    -0.040619848636921     0.010001497617616     0.001220506310147
    -0.005593061409570    -0.074569328978577     0.004687599033377
     0.004938886397437     0.019609353472829    -0.011729373204020
1 16
    -0.492456993909911    -0.884688327134117     0.065471484081241
    -0.872465409280982    -1.494325905388288     0.155716257986146
    -0.080346676282053    -0.108696402607357    -0.076921655458724
1 17
     0.006462478872078     0.014666873764369     0.012415110591340
    -0.002300457477544    -0.006244937950687     0.015938604257197
     0.022481428211708     0.016748882892485    -0.041421781014334
1 18
     0.011919225869923    -0.027004044347587     0.000189311849194
    -0.031444263937648     0.043467766029408     0.038790198105963
     0.006001027014538     0.017588758242227     0.029842648252313
1 19
     0.005966042933630    -0.022902781630321     0.006372269084854
    -0.022405417463194     0.022105838807072    -0.003697795251277
     0.030056507459950    -0.019969979415137     0.024826674673103
1 20
    -0.000096254974003    -0.003027551742673     0.000597794870148
     0.007528436407111     0.007497069037949     0.010477647729290
    -0.028488729220095    -0.007563394487216    -0.019676565549490
1 21
    -0.013731819873884    -0.009587252818639    -0.009595879885190
    -0.004809061786228     0.005664363412597     0.000521724319786
     0.002425820350897     0.011493311910402     0.053457266876358
1 22
    -0.000433181184057     0.040313085958834     0.020637082026696
     0.034067141777057     0.023142225628455     0.021258966641149
    -0.011135475854294     0.003089363452478     0.025543568823078
1 23
    -0.092625378858776     0.018729829498059     0.013445915040244
     0.013868173286813    -0.104480478947397     0.015388825070596
    -0.010495564882878    -0.003922954408049    -0.054295696581433
1 24
     0.048307194153869     0.004993176074832     0.011976903451995
     0.020233117945364    -0.007080907979765     0.018648046571201
     0.009637561773041    -0.020111720194521     0.039555752759408
1 25
    -0.040603681337398     0.041848787007595     0.010062347297697
     0.016994673686716    -0.021008786911312     0.033543355593565
     0.005888505937959     0.033130772245922    -0.018806812676618
1 26
    -0.008088415708867     0.009651636007895     0.038123199497617
     0.007160410636170    -0.021618347144977    -0.014272061965816
     0.007288186384074    -0.006256817717738    -0.017743236815172
1 27
    -0.009295581006815     0.032292909358360     0.017979786923892
     0.024468466805507     0.018598642444755    -0.013141882446508
    -0.020215010985911    -0.013362197653616     0.031229637706312
1 28
     0.065445329873151    -0.005089581853494     0.000940633662885
     0.001028643782145    -0.001668190742314     0.008350311400693
    -0.008300743469186     0.002017009719820     0.036865527639161
1 29
    -0.018893465553944     0.017429448720019     0.012168531972767
     0.015342359034929    -0.028654499941935     0.012039128574573
    -0.006777059991733    -0.005012572674131     0.050100721768732
1 30
    -0.021714534516891     0.004843479049623    -0.001507230169093
     0.018089791122707    -0.015276457398757    -0.009000409486861
    -0.017271018024965     0.001599777428538    -0.013520246136862
1 31
     0.046499194491860     0.015763595449927     0.005944561069902
     0.005046033107963    -0.045680150985763     0.004368345569360
     0.034347973853963     0.022051062914654     0.029027419064067
1 32
    -0.036649458363240     0.016395196564591     0.031039907244185
     0.007698026646964     0.005056828641514     0.021419056187457
    -0.016216737450716     0.012781287705164    -0.031669597299803
1 33
    -0.376159225242126    -0.249384458865135     0.829391805030043
    -0.235210955544498    -0.053469302648228     0.465322030317295
     0.713188772889345     0.393046809420083    -1.240934826730083
1 34
    -0.043102093331169    -0.004644125690175     0.017314418565917
     0.021713122673269    -0.100719111731929     0.115965431599522
    -0.003045528698109    -0.036592589406152    -0.003660598502004
1 35
    -0.010491061543738     0.032095084846149    -0.029358284486861
     0.055395434360179    -0.038600410442068    -0.028987767838958
    -0.009244380224858    -0.013216868763370    -0.014757143353441
1 36
    -0.064318904869846     0.038144356351304     0.083134986832859
     0.038776724489667    -0.082179543112386    -0.030150144153055
     0.024421849965180     0.007606818428891    -0.011483738414609
1 37
    -0.062841193412797     0.023458949214306     0.036072565538904
     0.005198964633109     0.019137815903669    -0.001403889976177
     0.005171499984530     0.031461970484730    -0.037239549195355
1 38
    -0.008865899530889    -0.033259718029977     0.041773220872818
    -0.011185158189335    -0.041423426865186     0.047201335786014
     0.024149104138115     0.025045760042213    -0.022514860044656
1 39
    -0.010120700900656    -0.026290028486543     0.016360293086174
    -0.044088813417992    -0.046008104318581    -0.018546562835644
    -0.003461913363202    -0.016246778778907    -0.018304809966173
1 40
    -0.061197108015269     0.009516868643969     0.001272328511305
    -0.001535451441049     0.025606550569034     0.030625529841111
     0.011780222975132    -0.004607500958576     0.008441337613142
1 41
    -0.030533806807132    -0.020243232257867    -0.014389676599771
     0.028303907709640     0.016710895718790     0.008430843688910
    -0.045796936194091     0.014791932428324    -0.030258739108328
1 42
     0.037566361092906     0.019010817579785    -0.012986054431869
     0.022471098092537    -0.000387963186951     0.006575876175730
    -0.016146496280465     0.005164674773650     0.028705518718269
1 43
    -0.005977774496102    -0.002612828528914    -0.000266292427673
    -0.045573815500301    -0.049016337464365    -0.053443273243994
    -0.010799202264403    -0.055734113024379    -0.027587556976455
1 44
    -0.056489160753190    -0.024124262970595    -0.089989121005963
    -0.018768591495693    -0.061425577074308    -0.036772720371682
     0.015051995063514     0.035900440220725    -0.014084757378641
1 45
    -0.331245580539211     0.240011554069236    -0.861300874928864
     0.275971689534373    -0.023175660061483     0.514975223658681
    -0.824855548872727     0.437188544873215    -1.347990804853024
1 46
     0.018354307695511     0.027644883547682    -0.032940168156802
     0.042236419984343    -0.006375285178043     0.037144885470517
    -0.041252570386210     0.026894965777371    -0.038058813708281
1 47
     0.007686422488428     0.032775609072397    -0.002513266252725
     0.024903995862106    -0.014515125275776    -0.038477437042542
    -0.000516219949717    -0.013089308822133    -0.027409685480735
1 48
     0.114742127602934    -0.005555604652263    -0.001430317192702
    -0.007887793510216    -0.436866322117455    -0.888369227063377
    -0.009090458069104    -0.842419283941810    -1.202194586567677
1 49
    -0.175505273641150     0.036548749334238     0.019003167624637
     0.008123541738010     0.022386599193950     0.133663501118515
    -0.060524824259061     0.027510353655571    -0.077163588731846
1 50
    -0.039824698696405    -0.018248501195649     0.021659454416453
     0.025866930229251     0.000289917908514    -0.007715609450780
    -0.024646442757761     0.002428494739244    -0.028687006160667
1 51
     0.001875348025293    -0.006414314266473    -0.009607841287228
     0.000999251617739     0.014740658500399    -0.009928009737926
     0.014033483377493     0.001169524546646     0.004223124422021
2 1
    -0.495186163033416     1.004853827103716    -0.587259472034816
     0.886275894585402    -1.541684462832001     0.071620544069574
     0.075950327847485    -0.172966810778794    -0.095672389602677
2 2
     7.997735572310614    -0.370041868033318     0.027259127828935
    -0.370041868033318     7.587534657477831    -0.027496681568665
     0.027259127828935    -0.027496681568665     3.534121265419609
2 3
    -0.510243766470213     0.878300779977214     0.071967340184580
     1.000135261113548    -1.509316824564732    -0.070772663072480
    -0.499738825697646     0.131512190749829    -0.052070196819868
2 4
    -0.051059907004808     0.064603743670549     0.001603591746390
     0.059260659184550    -0.088517506737300    -0.006022246270152
     0.013884832001520     0.033334779749169     0.034000761726104
2 5
    -0.141485503496613     0.062711501405685     0.009155317073062
     0.050888777517397    -0.053757061339147    -0.010883476068222
     0.021772544909246    -0.028765840582042    -0.002522462736870
2 6
    -2.054738424729199    -0.021156286868638    -0.120054024125315
    -0.012099260632482     0.009562208844852     0.017958310260325
     0.203366981256946     0.032351967583089    -0.076460073597168
2 7
    -0.487949515441743    -0.913180571662825    -0.059665793302033
    -0.946690682629226    -1.522021069289488    -0.069411437814521
     0.069237697846454     0.135014636765374    -0.052369486867072
2 8
     0.007161084056976    -0.003244432243659    -0.002156197220315
     0.021305697885010    -0.091756060199321     0.024986049197319
     0.001907738743660    -0.015142597462868     0.033021394666468
2 9
    -0.034802311891707    -0.027326485510095    -0.058934512907564
    -0.034336369695428    -0.040920454324776    -0.010846409322966
    -0.016350932796968    -0.039101339319335    -0.003081316203841
2 10
    -0.106518674121787     0.010725284580559     0.009957751265979
     0.011423283946739     0.022145308026558     0.010587592126257
     0.001480761351282    -0.003995408246665     0.034704665874725
2 11
    -0.076629099619587    -0.010821555155044     0.027388663831227
    -0.025212362789761    -0.015262572969768     0.002900249209390
    -0.016761264475041    -0.016994387677880    -0.019705761851572
2 12
    -0.019754032342992    -0.040761854624499     0.010665656938236
    -0.027572793720312    -0.076487379640846    -0.005620780866022
     0.000942895732776     0.039742121317662     0.034547361014455
2 13
    -0.469216454043828    -0.955016095660631     0.083127792410572
    -0.917460449498785    -1.545726599722447     0.072244669953275
    -0.065926474739148    -0.165101442961467    -0.095705844836348
2 14
    -2.031187110261071     0.026892079688200     0.125592424046001
     0.010138126639061     0.009384833964476     0.006173334338341
    -0.204322027165128     0.042285291094321    -0.077905778065293
2 15
    -0.102281689811113     0.041375915597224    -0.004024406942642
     0.044256651203699    -0.035145704501554     0.001940520556524
     0.034525600942131    -0.022798292201898    -0.025284855629582
2 16
    -0.023787503165682     0.029273779275892     0.005154339454319
     0.004912235574003    -0.094881047352469    -0.006057076946320
     0.007377330138361     0.036036349019918    -0.001502581225454
2 17
    -0.018400729529813     0.004950100543922    -0.026382913756431
     0.015065622084550     0.003711596477695    -0.005647501891625
     0.033854023592316    -0.020029022039385    -0.030652739681817
2 18
     0.035725673220926     0.001666394086802     0.010643564055629
     0.004413521965181    -0.001441359733885    -0.007269184996986
     0.002157237252449    -0.004919890210509    -0.037530880396655
2 19
     0.010673620984302    -0.024079796396705     0.008092773443508
    -0.022851822655835     0.032148888308522     0.018275460259351
     0.007118806750729     0.013657915190441     0.014635381591352
2 20
    -0.017586618376111    -0.014721163441765     0.039370681641241
    -0.017781265590152     0.018797504389019     0.010105347426277
     0.008374993963314     0.012573694691134     0.014198739700368
2 21
     0.051302868911634     0.034992999183398     0.013969303411445
     0.030118066961962    -0.010836139005643    -0.001412956456305
    -0.004669648078744    -0.002904437938809     0.024319362598614
2 22
    -0.038933576935958    -0.017192922012022     0.004413498564458
    -0.029945668635348    -0.002814485559539    -0.002954161875136
    -0.018774579480705     0.016400300522289     0.032742125237843
2 23
     0.011942733196232     0.034064073682262     0.004448961060148
     0.029661344650551     0.036028132766059     0.017396053288196
    -0.007472745286415     0.018408711776441     0.016465143925764
2 24
    -0.102391579606393     0.006654801614300     0.005437059189548
     0.005910604020727    -0.085639017600234     0.008160183126275
    -0.001462240979056     0.000221997459085    -0.068978277431106
2 25
     0.057083708123000    -0.020635183968052    -0.006096873775928
    -0.014328174299527    -0.007899761679998     0.000747733702829
     0.003110361701263     0.004138784476580     0.029715358719431
2 26
    -0.047920590808933     0.009033841319809     0.008481683059701
     0.007728866199817    -0.033886378992005     0.035187071779685
    -0.001531468117976    -0.002372058489810    -0.025624314317883
2 27
    -0.026391889233748    -0.000245564587242     0.026412318064940
     0.007773124767280    -0.021014920500822     0.010031065731186
     0.008893530584609    -0.009297031851642    -0.020393904313202
2 28
    -0.006160648546386     0.030793752438707    -0.016221690603754
     0.027944943218666     0.020591949832241     0.012118358222542
    -0.002649747069591     0.018431816090298     0.017475457141547
2 29
     0.001906844316025     0.007385096578321     0.051117678189772
    -0.006269214900775     0.007853761058711    -0.003908162551023
    -0.021117023055499    -0.018061616652197    -0.030612849249317
2 30
    -0.021627660632737     0.031119732310551     0.011554424198597
     0.043421835610289    -0.007952275502525    -0.002839064118946
     0.025154339397004     0.016866167316238     0.033092512063792
2 31
    -0.022542610702072     0.021681159885710    -0.016892352725292
     0.005071682900468    -0.022612079648463     0.010782717755079
    -0.008656608664401    -0.009215706538923    -0.020768024672449
2 32
     0.032523910895645     0.006971410796616     0.017309743621475
     0.005048796993359    -0.016314435469305    -0.007911345037891
     0.002368886391801     0.006990622790212     0.036719964741685
2 33
    -0.113916612496883     0.014892794744680     0.164016078426814
     0.029291179013494    -0.068361709980939    -0.043671133912892
    -0.019440834466075     0.001511125089435    -0.019497706023243
2 34
    -0.248106794988982    -0.173562668589093     0.681307531650351
    -0.161894563678087    -0.037019733203671     0.365336747058563
     0.532682454561374     0.332910671985765    -1.015963629764781
2 35
    -0.060591109891664    -0.003870105175160     0.006581442947727
     0.007964857291266    -0.096200879331495     0.105364321655604
    -0.014555093710686     0.018753147018503    -0.016022735056598
2 36
    -0.026140227458120     0.043767256282798    -0.035707901671836
     0.038928158368540    -0.040637500582316    -0.022437216445691
    -0.024036900271337     0.013119758362937     0.005246317296170
2 37
    -0.068168222402727     0.002093823893158     0.002295447122738
     0.007017663625696    -0.004617773875980     0.023432113785168
    -0.003977847304083     0.014269313680902    -0.021727982132383
2 38
    -0.061853378692153     0.006696239094599     0.030398353021998
     0.010063561535213     0.012522322303875     0.014053148202008
     0.042537176476857     0.008402029598637    -0.012441077593646
2 39
     0.018936507283810    -0.021390343500317     0.029352631912212
     0.000033161424593    -0.023213135019352     0.026229652021083
     0.041915102056540    -0.031152038308713    -0.044495741590907
2 40
    -0.022794038470469    -0.040646824470397     0.042966249533985
    -0.029425491363360    -0.043780836502388    -0.024646847916972
     0.015929028161323     0.015953237509323     0.002103267384935
2 41
    -0.087411115352976    -0.025061859739648    -0.118276138593747
    -0.019561121982614    -0.071529515257044    -0.039317728405138
     0.014987721077632     0.000154304367563    -0.018806214658141
2 42
    -0.040002672767956    -0.005160779853309    -0.015700982915379
     0.014233970788908     0.009616363318070     0.016587927519425
    -0.038260137928623     0.009138161743011    -0.012002514243295
2 43
     0.023288238339829     0.006561146720632     0.007964033065800
     0.006194631596365     0.023491936433517    -0.004455661467171
     0.003168798506793     0.004179371730610     0.016846123296935
2 44
    -0.010368753764778     0.006005218344038     0.011403325730087
    -0.041092746048096    -0.023279489069502    -0.035397894093490
     0.008167523153060    -0.028659648100998    -0.026129548928184
2 45
     0.107754177695307     0.001979482760345     0.039567575324691
     0.001388515701156    -0.301758183863153    -0.701445382652239
    -0.007230911814454    -0.641543652860445    -1.034568059988362
2 46
    -0.240366875847661     0.162186199088786    -0.636268417470789
     0.179192094722228    -0.041167602360942     0.361345784949271
    -0.577560428762173     0.317279553228988    -1.014564950349596
2 47
     0.015690780200144     0.031711632798580    -0.019071394251431
     0.016795426930563    -0.029237677160440     0.029898383574375
    -0.058214467460223    -0.032901827372181    -0.046394021242308
2 48
    -0.020416077798299     0.020315158280175     0.030252595118496
     0.047445953944014    -0.030255918021165    -0.035234858656162
    -0.009743205637134    -0.029777222430843    -0.025875872090297
2 49
    -0.011178439932948     0.010496755362911     0.128933698922581
     0.008926897244421    -0.026299745352196    -0.055710128352804
     0.008101540574739     0.026952130431100     0.005155295930727
2 50
    -0.018791973411442    -0.010408447188701    -0.025045879077514
     0.005653469016176     0.019074579916067     0.041442166435218
    -0.005076039673894     0.008480159980705    -0.001757001524401
2 51
     0.007334903058617    -0.000151005474835     0.002686771973374
     0.017801263506989    -0.056743504848364    -0.071633003713899
    -0.003273948875666     0.010572779601949    -0.042066330900007
3 1
    -0.028383249161063     0.084830972433954     0.030448591774231
     0.058544430655140    -0.108101436624613    -0.003318318726540
    -0.016079510410794    -0.002729652738447     0.029806330330193
3 2
    -0.510243766470213     1.000135261113548    -0.499738825697646
     0.878300779977214    -1.509316824564732     0.131512190749829
     0.071967340184580    -0.070772663072480    -0.052070196819868
3 3
     7.351080421519531    -0.519763482202149    -0.119994609689579
    -0.519763482202149     7.171053134192245    -0.340103001208127
    -0.119994609689579    -0.340103001208127     3.521906782227081
3 4
    -0.409105997602978     0.720343655754723     0.110202473140620
     0.820536209617522    -1.270521868884900    -0.105091906038742
    -0.594988473438811     0.094002334602763    -0.050172827196583
3 5
     0.006252758992335     0.022119361824894     0.020232366522147
     0.038156839336992    -0.091559280919405     0.000190461084702
    -0.008553294472289     0.011022809173216    -0.008927641038525
3 6
    -0.095300201103119     0.028835439532450    -0.004426818776015
     0.056988506181533    -0.048294497961593    -0.013985166501569
     0.032559180985390    -0.022583655570241    -0.020191261852130
3 7
    -1.510631347179714     0.093381393817472     0.001207882920121
    -0.109084680404028     0.055561025676476     0.059681027172716
     0.005731957701067     0.058787912578034     0.025619782377859
3 8
    -0.282708783691277    -0.739588943378960     0.105376911244586
    -0.588533477597937    -1.033549704724102     0.086839152280956
     0.051173595517457     0.021042304546911     0.213317553701120
3 9
    -0.038174473081824     0.001499279123429     0.038252205083520
     0.005345102148339    -0.039705803395543    -0.008279116000960
     0.025804453083654     0.007000453693958    -0.017579369352137
3 10
    -0.085474910929808    -0.033246538222759     0.023001938293978
    -0.029579301715660    -0.041411063483193     0.009729128802200
     0.001465293473369     0.005868370915845     0.010844376060144
3 11
    -0.087629269893326     0.007653492470985    -0.016892316324167
     0.013969633621647     0.010051307356594     0.011500550534055
     0.005179929444976    -0.004207470798791     0.009866340241640
3 12
    -0.089836582092948    -0.007285357496669     0.034165313010267
    -0.035400725580975    -0.003810768741834     0.032983157885061
    -0.011293625740672     0.005860986687693     0.006889438063894
3 13
    -0.023202976505483     0.015342964853647     0.012572368650164
    -0.006167712964656    -0.092588998534729     0.023019257429090
     0.000785684475399     0.006510502355866    -0.007328479829026
3 14
    -0.561382687316322    -1.239981754282875     0.049714573437856
    -1.153596206817008    -1.999851857291550     0.086289562900219
    -0.123175157959406    -0.211487312951925     0.005611797588464
3 15
    -2.296419641186218     0.019856324703532     0.186249427773596
    -0.023366942771571     0.029864015712506    -0.019688603921441
    -0.168138784006602     0.000669229477273    -0.053726063181393
3 16
    -0.113831610670570     0.044194043869312     0.011234328308551
     0.030216056189548    -0.028278221516010     0.004369086592256
     0.036607607470167     0.008002633858454     0.008968082688056
3 17
    -0.016347087278152    -0.012081660688694     0.006027446430822
    -0.031692470206510     0.034100532008719     0.005192914246169
     0.017642936116168    -0.009140174205191     0.024573608854095
3 18
    -0.014645774112451    -0.001448104342274     0.043639631339553
     0.018828440144845    -0.000525686842217    -0.010367045511998
     0.009461336128174     0.013883524161112    -0.037083877185536
3 19
     0.008573429494403    -0.003470615832084     0.000732336027085
    -0.015989961043975    -0.012403251624932     0.040286726344397
    -0.024402312961542     0.000929263511580    -0.031511762023145
3 20
     0.029063830589079    -0.008192442322991    -0.009595687479245
    -0.014063748729534     0.039565830670787     0.000573281312750
    -0.011707319322618     0.026833200869013     0.018434452571758
3 21
    -0.094522519674991    -0.004185528720843     0.026041104595508
     0.000961070294318    -0.080659416544831     0.015741770375594
     0.004875811048589     0.017477222596095    -0.031634574217690
3 22
     0.032286596363306     0.031901360660627    -0.015013875285722
     0.023279743877375    -0.003505800119177    -0.006271838381833
     0.011380099212454    -0.000352014476239     0.021829788277902
3 23
    -0.001002663779438     0.008854199169381    -0.013006800472862
     0.011794949830150    -0.010433849376046     0.012616689619554
     0.004669107262034    -0.001538363531025     0.063660847937773
3 24
     0.004566804501172     0.026159210644646    -0.018931754336958
     0.029878277153144     0.014156454593880     0.009847260852142
     0.019504253025526     0.047903536882016     0.017521187354480
3 25
    -0.009117366300492     0.046418446396975    -0.004151730276568
     0.018309934724513     0.016418332079412     0.002518788823357
    -0.020141771923034    -0.011324220885974     0.028985583771477
3 26
     0.066524872827935    -0.015500586923717     0.004352061266222
    -0.004448490445607    -0.005822029684033     0.021919270042632
    -0.013529840433298    -0.003081976624246     0.034320821215025
3 27
    -0.031147324363066     0.007510748060592    -0.002266713634956
    -0.009032887090326    -0.015619251990127     0.037104852033599
     0.001233072498407     0.026348574495447    -0.024831565424213
3 28
    -0.031809614225925     0.012834469748336     0.034108399851813
     0.009184593977634    -0.021910627375598    -0.021830438297985
     0.021094703965903     0.002773718899966    -0.065538488151475
3 29
     0.032041257983053     0.007590760332742    -0.049848225367317
     0.012531916600311    -0.026073080383468    -0.000144067851284
    -0.022622326565064     0.005220573900773     0.039408996425058
3 30
     0.011618305572348     0.007930239821685     0.000444629337772
    -0.002874885425721    -0.004584942661589     0.019531013052335
     0.009429253736920     0.028484420886980    -0.068137559655336
3 31
    -0.036182619139245     0.030400916701208    -0.011981476993305
     0.043193553757034     0.002050254346984    -0.024809017527548
     0.020931005508090    -0.001430171588204     0.022754480848252
3 32
    -0.021010341759352     0.016688711833372     0.011238844648093
     0.002759067447278    -0.013633032421635     0.012988285300796
    -0.013573784391040     0.008958737999332     0.010916585491209
3 33
    -0.008121616134665     0.040129525487341    -0.037444731934914
     0.042245301858768    -0.061413655705972    -0.011045695080325
     0.004615041191548     0.018422502602538     0.004746199643968
3 34
    -0.088185806688719     0.018071642561968     0.121842772792523
     0.016548161890781    -0.074445988967724    -0.010856835645110
    -0.007568360640656     0.025206598411658    -0.013419386420585
3 35
    -0.289631723790287    -0.176603930555372     0.729483049935813
    -0.208087718314193    -0.071917951658616     0.414691417376444
     0.641583122079931     0.384669376581415    -1.056503567532686
3 36
    -0.042212592848153     0.014866983747194     0.016965906397890
     0.028848788344890    -0.073822617107320     0.078901676435699
    -0.014937401722908    -0.008357375818964    -0.025725889056251
3 37
     0.001540555398747    -0.034019924318173     0.040957149258544
    -0.014477450111721    -0.032654616934087     0.006225034335722
    -0.017042975379100    -0.018333858063676    -0.025225943009351
3 38
    -0.065904306454212    -0.004966670855897     0.026813996675658
     0.008855891821680     0.014114627101530     0.019582999058553
    -0.006568374943963    -0.033548867763875    -0.006249220282999
3 39
    -0.051925247541350     0.017205196991283     0.034155879918811
     0.000216326683875     0.006512062404067    -0.007645375020179
     0.025023752962258    -0.021130140460789    -0.046172390394550
3 40
    -0.013169282093078    -0.005138814374638     0.027164955519281
    -0.040505725910856    -0.025606495967347     0.022379021447633
     0.037071295396795    -0.003038589083695    -0.037269112108765
3 41
     0.009574005409332    -0.014943199902055     0.017723205796271
    -0.033182833654470    -0.034880433905453    -0.051244767516468
     0.003051251474927     0.013004606005059    -0.008644484489799
3 42
    -0.094501407022671    -0.032098155541025    -0.099818098093189
    -0.011651513798387    -0.021950369603519    -0.029694230466629
    -0.029492284827087     0.009620531246847     0.007097522493106
3 43
    -0.056391746143358    -0.013167298231783    -0.020799215236148
     0.041541834523643     0.013409508715393     0.032108199651359
    -0.034779587189579     0.025380489184385    -0.020303052306135
3 44
     0.014814870337039     0.011998335914197     0.018005727925395
     0.009738379888032     0.009137706728953     0.000685225171494