       N       E                     dE             d eps       ncg     rms          rms(c)
DAV:   1     0.510582763455E+04    0.51058E+04   -0.21906E+05  3240   0.198E+03
DAV:   2     0.567478970563E+03   -0.45383E+04   -0.43838E+04  3240   0.449E+02
DAV:   3    -0.149750446196E+03   -0.71723E+03   -0.65908E+03  3288   0.225E+02
DAV:   4    -0.216132215587E+03   -0.66382E+02   -0.61019E+02  4464   0.802E+01
DAV:   5    -0.220555816617E+03   -0.44236E+01   -0.43487E+01  4824   0.165E+01    0.537E+01
RMM:   6    -0.199654254144E+03    0.20902E+02   -0.50020E+02  3255   0.105E+02    0.333E+01
RMM:   7    -0.178537566605E+03    0.21117E+02   -0.11099E+02  3245   0.540E+01    0.776E+00
RMM:   8    -0.177255093506E+03    0.12825E+01   -0.70262E+00  3467   0.831E+00    0.543E+00
RMM:   9    -0.176952554228E+03    0.30254E+00   -0.26330E+00  3276   0.602E+00    0.306E+00
RMM:  10    -0.176838437197E+03    0.11412E+00   -0.93156E-01  3479   0.308E+00    0.239E+00
RMM:  11    -0.176804937455E+03    0.33500E-01   -0.33285E-01  3300   0.181E+00    0.147E+00
RMM:  12    -0.176796433623E+03    0.85038E-02   -0.24234E-01  3334   0.168E+00    0.126E+00
RMM:  13    -0.176772863990E+03    0.23570E-01   -0.87028E-02  4260   0.716E-01    0.702E-01
RMM:  14    -0.176764200487E+03    0.86635E-02   -0.15787E-02  3390   0.291E-01    0.276E-01
RMM:  15    -0.176762469749E+03    0.17307E-02   -0.15018E-02  3420   0.312E-01    0.337E-01
RMM:  16    -0.176759314767E+03    0.31550E-02   -0.48490E-03  3279   0.264E-01    0.128E-01
RMM:  17    -0.176759180288E+03    0.13448E-03   -0.19229E-03  3425   0.140E-01    0.104E-01
RMM:  18    -0.176759273497E+03   -0.93209E-04   -0.88446E-04  3272   0.102E-01    0.601E-02
RMM:  19    -0.176760037382E+03   -0.76389E-03   -0.79682E-04  3326   0.736E-02    0.532E-02
RMM:  20    -0.176760539211E+03   -0.50183E-03   -0.40009E-04  3264   0.684E-02    0.264E-02
RMM:  21    -0.176761112503E+03   -0.57329E-03   -0.18546E-04  3242   0.348E-02    0.262E-02
RMM:  22    -0.176761482185E+03   -0.36968E-03   -0.92735E-05  3042   0.297E-02    0.162E-02
RMM:  23    -0.176761977516E+03   -0.49533E-03   -0.11140E-04  2972   0.232E-02    0.219E-02
RMM:  24    -0.176762186531E+03   -0.20902E-03   -0.24843E-05  2022   0.178E-02    0.122E-02
RMM:  25    -0.176762473462E+03   -0.28693E-03   -0.25577E-05  1994   0.134E-02    0.106E-02
RMM:  26    -0.176762608219E+03   -0.13476E-03   -0.10575E-05  1927   0.124E-02    0.448E-03
RMM:  27    -0.176762663096E+03   -0.54877E-04   -0.29662E-06  1876   0.516E-03    0.364E-03
RMM:  28    -0.176762717515E+03   -0.54419E-04   -0.25987E-06  1880   0.454E-03    0.218E-03
RMM:  29    -0.176762753094E+03   -0.35578E-04   -0.24680E-06  1887   0.313E-03    0.168E-03
RMM:  30    -0.176762758101E+03   -0.50073E-05   -0.55424E-07  1734   0.248E-03
   1 F= -.17676276E+03 E0= -.17673874E+03  d E =-.720671E-01
       N       E                     dE             d eps       ncg     rms          rms(c)
DAV:   1    -0.176759102026E+03    0.36511E-02   -0.12767E+00  3432   0.204E+00    0.667E-02
RMM:   2    -0.176760466872E+03   -0.13648E-02   -0.14318E-02  3251   0.523E-01    0.645E-02
RMM:   3    -0.176761167113E+03   -0.70024E-03   -0.77377E-03  4498   0.228E-01    0.562E-02
RMM:   4    -0.176761151728E+03    0.15384E-04   -0.26144E-04  3316   0.382E-02    0.477E-02
RMM:   5    -0.176761120519E+03    0.31209E-04   -0.52133E-05  2690   0.298E-02    0.366E-02
RMM:   6    -0.176761099655E+03    0.20864E-04   -0.12543E-04  3491   0.369E-02    0.207E-02
RMM:   7    -0.176761097514E+03    0.21412E-05   -0.33282E-05  2310   0.225E-02
   2 F= -.17676110E+03 E0= -.17673713E+03  d E =-.719017E-01
       N       E                     dE             d eps       ncg     rms          rms(c)
DAV:   1    -0.176758164853E+03    0.29348E-02   -0.25567E+00  3352   0.290E+00    0.101E-01
RMM:   2    -0.176760982709E+03   -0.28179E-02   -0.29783E-02  3256   0.746E-01    0.116E-01
RMM:   3    -0.176762408267E+03   -0.14256E-02   -0.16612E-02  4530   0.338E-01    0.813E-02
RMM:   4    -0.176762379355E+03    0.28912E-04   -0.52138E-04  3306   0.520E-02    0.720E-02
RMM:   5    -0.176762316873E+03    0.62481E-04   -0.13001E-04  3170   0.497E-02    0.592E-02
RMM:   6    -0.176762251108E+03    0.65765E-04   -0.26400E-04  3634   0.518E-02    0.291E-02
RMM:   7    -0.176762246567E+03    0.45407E-05   -0.66628E-05  2971   0.326E-02
   3 F= -.17676225E+03 E0= -.17673820E+03  d E =-.721282E-01
       N       E                     dE             d eps       ncg     rms          rms(c)
DAV:   1    -0.176758665241E+03    0.35859E-02   -0.25665E+00  3328   0.290E+00    0.954E-02
RMM:   2    -0.176761309159E+03   -0.26439E-02   -0.27897E-02  3248   0.733E-01    0.839E-02
RMM:   3    -0.176762677979E+03   -0.13688E-02   -0.14940E-02  4558   0.318E-01    0.877E-02
RMM:   4    -0.176762621790E+03    0.56189E-04   -0.49265E-04  4047   0.517E-02    0.707E-02
RMM:   5    -0.176762573925E+03    0.47865E-04   -0.62555E-05  2730   0.315E-02    0.590E-02
RMM:   6    -0.176762519511E+03    0.54414E-04   -0.27779E-04  4053   0.509E-02    0.370E-02
RMM:   7    -0.176762506919E+03    0.12592E-04   -0.71633E-05  3119   0.348E-02    0.205E-02
RMM:   8    -0.176762502977E+03    0.39426E-05   -0.17537E-05  1876   0.154E-02
   4 F= -.17676250E+03 E0= -.17673851E+03  d E =-.719739E-01
       N       E                     dE             d eps       ncg     rms          rms(c)
DAV:   1    -0.176758027652E+03    0.44793E-02   -0.25614E+00  3384   0.292E+00    0.129E-01
RMM:   2    -0.176760956269E+03   -0.29286E-02   -0.31754E-02  3251   0.778E-01    0.171E-01
RMM:   3    -0.176762122232E+03   -0.11660E-02   -0.16814E-02  4438   0.367E-01    0.826E-02
RMM:   4    -0.176762123519E+03   -0.12876E-05   -0.93517E-04  3551   0.664E-02    0.741E-02
RMM:   5    -0.176762072001E+03    0.51518E-04   -0.13038E-04  3185   0.485E-02    0.634E-02
RMM:   6    -0.176761991746E+03    0.80255E-04   -0.23037E-04  3463   0.528E-02    0.298E-02
RMM:   7    -0.176761989885E+03    0.18617E-05   -0.96501E-05  3172   0.371E-02
   5 F= -.17676199E+03 E0= -.17673796E+03  d E =-.720784E-01
       N       E                     dE             d eps       ncg     rms          rms(c)
DAV:   1    -0.176757256086E+03    0.47357E-02   -0.25563E+00  3312   0.284E+00    0.993E-02
RMM:   2    -0.176760063606E+03   -0.28075E-02   -0.29610E-02  3254   0.732E-01    0.116E-01
RMM:   3    -0.176761478295E+03   -0.14147E-02   -0.16503E-02  4532   0.331E-01    0.793E-02
RMM:   4    -0.176761451910E+03    0.26385E-04   -0.51549E-04  3261   0.511E-02    0.703E-02
RMM:   5    -0.176761389701E+03    0.62209E-04   -0.12378E-04  3117   0.479E-02    0.568E-02
RMM:   6    -0.176761330586E+03    0.59116E-04   -0.27296E-04  3692   0.519E-02    0.283E-02
RMM:   7    -0.176761325084E+03    0.55013E-05   -0.57836E-05  2872   0.309E-02
   6 F= -.17676133E+03 E0= -.17673731E+03  d E =-.720566E-01
       N       E                     dE             d eps       ncg     rms          rms(c)
DAV:   1    -0.176757066920E+03    0.42637E-02   -0.25664E+00  3340   0.282E+00    0.924E-02
RMM:   2    -0.176759713401E+03   -0.26465E-02   -0.27807E-02  3253   0.712E-01    0.879E-02
RMM:   3    -0.176761060025E+03   -0.13466E-02   -0.14869E-02  4517   0.309E-01    0.833E-02
RMM:   4    -0.176761014383E+03    0.45642E-04   -0.45073E-04  3444   0.494E-02    0.691E-02
RMM:   5    -0.176760958845E+03    0.55538E-04   -0.93925E-05  2925   0.391E-02    0.560E-02
RMM:   6    -0.176760913713E+03    0.45133E-04   -0.27158E-04  3817   0.516E-02    0.368E-02
RMM:   7    -0.176760901099E+03    0.12614E-04   -0.67131E-05  3086   0.340E-02    0.181E-02
RMM:   8    -0.176760897637E+03    0.34616E-05   -0.16511E-05  1875   0.140E-02
   7 F= -.17676090E+03 E0= -.17673691E+03  d E =-.719620E-01
       N       E                     dE             d eps       ncg     rms          rms(c)
DAV:   1    -0.176763762725E+03   -0.28616E-02   -0.25627E+00  3364   0.291E+00    0.131E-01
RMM:   2    -0.176766707822E+03   -0.29451E-02   -0.31946E-02  3256   0.777E-01    0.176E-01
RMM:   3    -0.176767838613E+03   -0.11308E-02   -0.16784E-02  4426   0.367E-01    0.813E-02
RMM:   4    -0.176767849328E+03   -0.10715E-04   -0.10130E-03  3721   0.684E-02    0.731E-02
RMM:   5    -0.176767802399E+03    0.46928E-04   -0.11581E-04  3038   0.443E-02    0.630E-02
RMM:   6    -0.176767719988E+03    0.82411E-04   -0.22892E-04  3507   0.523E-02    0.281E-02
RMM:   7    -0.176767718639E+03    0.13497E-05   -0.91935E-05  3185   0.370E-02
   8 F= -.17676772E+03 E0= -.17674371E+03  d E =-.720311E-01
       N       E                     dE             d eps       ncg     rms          rms(c)
DAV:   1    -0.176763787936E+03    0.39321E-02   -0.25556E+00  3296   0.289E+00    0.993E-02
RMM:   2    -0.176766608255E+03   -0.28203E-02   -0.29713E-02  3256   0.744E-01    0.119E-01
RMM:   3    -0.176768018334E+03   -0.14101E-02   -0.16521E-02  4532   0.337E-01    0.789E-02
RMM:   4    -0.176767994218E+03    0.24117E-04   -0.52961E-04  3321   0.526E-02    0.699E-02
RMM:   5    -0.176767942517E+03    0.51700E-04   -0.11326E-04  3017   0.456E-02    0.589E-02
RMM:   6    -0.176767876477E+03    0.66040E-04   -0.25740E-04  3710   0.505E-02    0.299E-02
RMM:   7    -0.176767871951E+03    0.45259E-05   -0.66759E-05  3074   0.332E-02
   9 F= -.17676787E+03 E0= -.17674389E+03  d E =-.719327E-01
       N       E                     dE             d eps       ncg     rms          rms(c)
DAV:   1    -0.176764846685E+03    0.30298E-02   -0.25663E+00  3292   0.289E+00    0.918E-02
RMM:   2    -0.176767522609E+03   -0.26759E-02   -0.28085E-02  3248   0.735E-01    0.929E-02
RMM:   3    -0.176768866812E+03   -0.13442E-02   -0.14942E-02  4545   0.318E-01    0.825E-02
RMM:   4    -0.176768827447E+03    0.39365E-04   -0.44578E-04  3408   0.500E-02    0.700E-02
RMM:   5    -0.176768774297E+03    0.53150E-04   -0.93696E-05  2903   0.398E-02    0.580E-02
RMM:   6    -0.176768722809E+03    0.51488E-04   -0.27524E-04  3910   0.508E-02    0.372E-02
RMM:   7    -0.176768709909E+03    0.12900E-04   -0.69866E-05  3126   0.345E-02    0.189E-02
RMM:   8    -0.176768706413E+03    0.34964E-05   -0.16988E-05  1875   0.140E-02
  10 F= -.17676871E+03 E0= -.17674468E+03  d E =-.720701E-01
       N       E                     dE             d eps       ncg     rms          rms(c)
DAV:   1    -0.176759344084E+03    0.93658E-02   -0.25621E+00  3360   0.293E+00    0.123E-01
RMM:   2    -0.176762281280E+03   -0.29372E-02   -0.31442E-02  3252   0.772E-01    0.166E-01
RMM:   3    -0.176763521204E+03   -0.12399E-02   -0.17160E-02  4481   0.367E-01    0.805E-02
RMM:   4    -0.176763515945E+03    0.52594E-05   -0.80493E-04  3467   0.627E-02    0.721E-02
RMM:   5    -0.176763469539E+03    0.46406E-04   -0.13062E-04  3182   0.493E-02    0.624E-02
RMM:   6    -0.176763389483E+03    0.80056E-04   -0.20792E-04  3426   0.507E-02    0.270E-02
RMM:   7    -0.176763390599E+03   -0.11166E-05   -0.97838E-05  3186   0.367E-02
  11 F= -.17676339E+03 E0= -.17673938E+03  d E =-.720297E-01
       N       E                     dE             d eps       ncg     rms          rms(c)
DAV:   1    -0.176757953445E+03    0.54360E-02   -0.25604E+00  3256   0.288E+00    0.104E-01
RMM:   2    -0.176760819229E+03   -0.28658E-02   -0.30266E-02  3255   0.750E-01    0.129E-01
RMM:   3    -0.176762183374E+03   -0.13641E-02   -0.16638E-02  4505   0.343E-01    0.773E-02
RMM:   4    -0.176762172394E+03    0.10980E-04   -0.61484E-04  3321   0.554E-02    0.700E-02
RMM:   5    -0.176762123505E+03    0.48889E-04   -0.10957E-04  3048   0.452E-02    0.589E-02
RMM:   6    -0.176762053944E+03    0.69561E-04   -0.22970E-04  3646   0.479E-02    0.293E-02
RMM:   7    -0.176762050984E+03    0.29598E-05   -0.69361E-05  3001   0.327E-02
  12 F= -.17676205E+03 E0= -.17673805E+03  d E =-.719913E-01
       N       E                     dE             d eps       ncg     rms          rms(c)
DAV:   1    -0.176759308541E+03    0.27454E-02   -0.25714E+00  3276   0.289E+00    0.915E-02
RMM:   2    -0.176761954003E+03   -0.26455E-02   -0.27791E-02  3248   0.728E-01    0.824E-02
RMM:   3    -0.176763308655E+03   -0.13547E-02   -0.14823E-02  4557   0.315E-01    0.825E-02
RMM:   4    -0.176763267761E+03    0.40894E-04   -0.46341E-04  3684   0.500E-02    0.688E-02
RMM:   5    -0.176763221071E+03    0.46690E-04   -0.63352E-05  2552   0.315E-02    0.556E-02
RMM:   6    -0.176763175314E+03    0.45758E-04   -0.26141E-04  4055   0.466E-02    0.393E-02
RMM:   7    -0.176763163376E+03    0.11937E-04   -0.70497E-05  3054   0.336E-02    0.229E-02
RMM:   8    -0.176763158049E+03    0.53275E-05   -0.17592E-05  1891   0.164E-02
  13 F= -.17676316E+03 E0= -.17673917E+03  d E =-.719722E-01
       N       E                     dE             d eps       ncg     rms          rms(c)
DAV:   1    -0.176760803312E+03    0.23601E-02   -0.25524E+00  3376   0.298E+00    0.160E-01
RMM:   2    -0.176763997820E+03   -0.31945E-02   -0.33759E-02  3266   0.817E-01    0.229E-01
RMM:   3    -0.176764794804E+03   -0.79698E-03   -0.16362E-02  4220   0.387E-01    0.928E-02
RMM:   4    -0.176764889209E+03   -0.94405E-04   -0.21884E-03  4399   0.107E-01    0.824E-02
RMM:   5    -0.176764843992E+03    0.45217E-04   -0.10384E-04  3038   0.353E-02    0.704E-02
RMM:   6    -0.176764770333E+03    0.73659E-04   -0.25866E-04  3528   0.547E-02    0.457E-02
RMM:   7    -0.176764751855E+03    0.18478E-04   -0.15432E-04  3238   0.511E-02    0.218E-02
RMM:   8    -0.176764750244E+03    0.16113E-05   -0.48819E-05  2599   0.240E-02
  14 F= -.17676475E+03 E0= -.17674073E+03  d E =-.720682E-01
       N       E                     dE             d eps       ncg     rms          rms(c)
DAV:   1    -0.176757980740E+03    0.67711E-02   -0.25398E+00  3284   0.290E+00    0.135E-01
RMM:   2    -0.176760615976E+03   -0.26352E-02   -0.28588E-02  3277   0.711E-01    0.902E-02
RMM:   3    -0.176762028804E+03   -0.14128E-02   -0.14669E-02  4413   0.312E-01    0.106E-01
RMM:   4    -0.176761941684E+03    0.87120E-04   -0.10683E-03  3522   0.906E-02    0.651E-02
RMM:   5    -0.176761925138E+03    0.16547E-04   -0.28642E-04  3283   0.529E-02    0.547E-02
RMM:   6    -0.176761883273E+03    0.41865E-04   -0.16480E-04  3300   0.429E-02    0.253E-02
RMM:   7    -0.176761882236E+03    0.10376E-05   -0.98790E-05  3191   0.394E-02
  15 F= -.17676188E+03 E0= -.17673791E+03  d E =-.719273E-01
       N       E                     dE             d eps       ncg     rms          rms(c)
DAV:   1    -0.176761634422E+03    0.24885E-03   -0.25326E+00  3272   0.288E+00    0.154E-01
RMM:   2    -0.176764628168E+03   -0.29937E-02   -0.31014E-02  3265   0.763E-01    0.210E-01
RMM:   3    -0.176765464516E+03   -0.83635E-03   -0.15168E-02  4206   0.349E-01    0.977E-02
RMM:   4    -0.176765469664E+03   -0.51476E-05   -0.15569E-03  4276   0.908E-02    0.780E-02
RMM:   5    -0.176765427401E+03    0.42263E-04   -0.16005E-04  3244   0.487E-02    0.687E-02
RMM:   6    -0.176765360664E+03    0.66737E-04   -0.21219E-04  3367   0.521E-02    0.334E-02
RMM:   7    -0.176765350377E+03    0.10286E-04   -0.91877E-05  3137   0.396E-02    0.127E-02
RMM:   8    -0.176765351832E+03   -0.14542E-05   -0.37709E-05  2246   0.190E-02
  16 F= -.17676535E+03 E0= -.17674135E+03  d E =-.720048E-01
       N       E                     dE             d eps       ncg     rms          rms(c)
DAV:   1    -0.176757167517E+03    0.81829E-02   -0.25419E+00  3404   0.297E+00    0.119E-01
RMM:   2    -0.176759887330E+03   -0.27198E-02   -0.29579E-02  3261   0.738E-01    0.109E-01
RMM:   3    -0.176761428002E+03   -0.15407E-02   -0.17257E-02  4538   0.352E-01    0.950E-02
RMM:   4    -0.176761362197E+03    0.65804E-04   -0.70301E-04  4142   0.629E-02    0.755E-02
RMM:   5    -0.176761323995E+03    0.38202E-04   -0.90166E-05  3027   0.358E-02    0.677E-02
RMM:   6    -0.176761248200E+03    0.75796E-04   -0.21450E-04  3626   0.465E-02    0.342E-02
RMM:   7    -0.176761243341E+03    0.48591E-05   -0.12391E-04  3296   0.422E-02    0.225E-02
RMM:   8    -0.176761239558E+03    0.37830E-05   -0.40093E-05  2466   0.239E-02
  17 F= -.17676124E+03 E0= -.17673721E+03  d E =-.720936E-01
       N       E                     dE             d eps       ncg     rms          rms(c)
DAV:   1    -0.176757533593E+03    0.37097E-02   -0.25581E+00  3268   0.290E+00    0.103E-01
RMM:   2    -0.176760395963E+03   -0.28624E-02   -0.30224E-02  3254   0.751E-01    0.125E-01
RMM:   3    -0.176761805284E+03   -0.14093E-02   -0.16815E-02  4523   0.343E-01    0.799E-02
RMM:   4    -0.176761780974E+03    0.24309E-04   -0.55092E-04  3317   0.533E-02    0.710E-02
RMM:   5    -0.176761721071E+03    0.59904E-04   -0.13171E-04  3171   0.498E-02    0.592E-02
RMM:   6    -0.176761656300E+03    0.64770E-04   -0.26347E-04  3657   0.522E-02    0.279E-02
RMM:   7    -0.176761651959E+03    0.43410E-05   -0.61997E-05  2886   0.316E-02
  18 F= -.17676165E+03 E0= -.17673765E+03  d E =-.719996E-01
       N       E                     dE             d eps       ncg     rms          rms(c)
DAV:   1    -0.176758775520E+03    0.28808E-02   -0.25663E+00  3280   0.290E+00    0.949E-02
RMM:   2    -0.176761425134E+03   -0.26496E-02   -0.27923E-02  3254   0.732E-01    0.801E-02
RMM:   3    -0.176762809376E+03   -0.13842E-02   -0.15022E-02  4553   0.319E-01    0.882E-02
RMM:   4    -0.176762755421E+03    0.53955E-04   -0.51728E-04  4177   0.531E-02    0.704E-02
RMM:   5    -0.176762713659E+03    0.41762E-04   -0.47684E-05  2283   0.267E-02    0.595E-02
RMM:   6    -0.176762654576E+03    0.59082E-04   -0.30748E-04  4215   0.520E-02    0.355E-02
RMM:   7    -0.176762645910E+03    0.86660E-05   -0.72912E-05  3119   0.353E-02
  19 F= -.17676265E+03 E0= -.17673865E+03  d E =-.719923E-01
       N       E                     dE             d eps       ncg     rms          rms(c)
DAV:   1    -0.176752550969E+03    0.10104E-01   -0.25631E+00  3344   0.293E+00    0.128E-01
RMM:   2    -0.176755466533E+03   -0.29156E-02   -0.31471E-02  3252   0.778E-01    0.169E-01
RMM:   3    -0.176756631153E+03   -0.11646E-02   -0.16612E-02  4465   0.364E-01    0.844E-02
RMM:   4    -0.176756623414E+03    0.77398E-05   -0.82913E-04  3779   0.634E-02    0.756E-02
RMM:   5    -0.176756578650E+03    0.44764E-04   -0.11996E-04  3141   0.458E-02    0.669E-02
RMM:   6    -0.176756488398E+03    0.90251E-04   -0.23424E-04  3548   0.523E-02    0.294E-02
RMM:   7    -0.176756485595E+03    0.28032E-05   -0.95854E-05  3190   0.379E-02
  20 F= -.17675649E+03 E0= -.17673246E+03  d E =-.720654E-01
       N       E                     dE             d eps       ncg     rms          rms(c)
DAV:   1    -0.176763762985E+03   -0.72746E-02   -0.25584E+00  3288   0.289E+00    0.972E-02
RMM:   2    -0.176766590514E+03   -0.28275E-02   -0.29604E-02  3257   0.743E-01    0.112E-01
RMM:   3    -0.176768029777E+03   -0.14393E-02   -0.16575E-02  4532   0.336E-01    0.800E-02
RMM:   4    -0.176768004315E+03    0.25462E-04   -0.51479E-04  3344   0.523E-02    0.705E-02
RMM:   5    -0.176767951126E+03    0.53189E-04   -0.12143E-04  3105   0.473E-02    0.598E-02
RMM:   6    -0.176767882577E+03    0.68549E-04   -0.27086E-04  3755   0.504E-02    0.273E-02
RMM:   7    -0.176767879416E+03    0.31608E-05   -0.58481E-05  2800   0.304E-02
  21 F= -.17676788E+03 E0= -.17674390E+03  d E =-.719456E-01
       N       E                     dE             d eps       ncg     rms          rms(c)
DAV:   1    -0.176764832741E+03    0.30498E-02   -0.25666E+00  3276   0.289E+00    0.917E-02
RMM:   2    -0.176767502329E+03   -0.26696E-02   -0.28023E-02  3249   0.735E-01    0.921E-02
RMM:   3    -0.176768841422E+03   -0.13391E-02   -0.14865E-02  4545   0.317E-01    0.826E-02
RMM:   4    -0.176768801394E+03    0.40028E-04   -0.44541E-04  3418   0.500E-02    0.699E-02
RMM:   5    -0.176768745698E+03    0.55697E-04   -0.93818E-05  2902   0.396E-02    0.567E-02
RMM:   6    -0.176768695933E+03    0.49764E-04   -0.28573E-04  3946   0.515E-02    0.352E-02
RMM:   7    -0.176768684806E+03    0.11128E-04   -0.63869E-05  3065   0.330E-02    0.188E-02
RMM:   8    -0.176768681212E+03    0.35934E-05   -0.15612E-05  1875   0.133E-02
  22 F= -.17676868E+03 E0= -.17674466E+03  d E =-.720718E-01
       N       E                     dE             d eps       ncg     rms          rms(c)
DAV:   1    -0.176757974905E+03    0.10710E-01   -0.25599E+00  3328   0.295E+00    0.125E-01
RMM:   2    -0.176760940324E+03   -0.29654E-02   -0.31686E-02  3259   0.779E-01    0.170E-01
RMM:   3    -0.176762172293E+03   -0.12320E-02   -0.17074E-02  4462   0.368E-01    0.837E-02
RMM:   4    -0.176762173538E+03   -0.12451E-05   -0.91468E-04  3873   0.666E-02    0.751E-02
RMM:   5    -0.176762143239E+03    0.30300E-04   -0.99128E-05  2805   0.394E-02    0.689E-02
RMM:   6    -0.176762046075E+03    0.97164E-04   -0.19388E-04  3495   0.476E-02    0.330E-02
RMM:   7    -0.176762044130E+03    0.19454E-05   -0.12521E-04  3259   0.422E-02    0.241E-02
RMM:   8    -0.176762040571E+03    0.35587E-05   -0.41890E-05  2616   0.246E-02
  23 F= -.17676204E+03 E0= -.17673802E+03  d E =-.720575E-01
       N       E                     dE             d eps       ncg     rms          rms(c)
DAV:   1    -0.176752118457E+03    0.99257E-02   -0.25588E+00  3288   0.289E+00    0.984E-02
RMM:   2    -0.176754925533E+03   -0.28071E-02   -0.29273E-02  3262   0.732E-01    0.104E-01
RMM:   3    -0.176756396763E+03   -0.14712E-02   -0.16379E-02  4560   0.330E-01    0.847E-02
RMM:   4    -0.176756357242E+03    0.39521E-04   -0.51624E-04  3443   0.521E-02    0.718E-02
RMM:   5    -0.176756311391E+03    0.45851E-04   -0.10704E-04  3075   0.425E-02    0.633E-02
RMM:   6    -0.176756240323E+03    0.71067E-04   -0.25917E-04  3789   0.480E-02    0.325E-02
RMM:   7    -0.176756233421E+03    0.69019E-05   -0.71451E-05  2988   0.341E-02
  24 F= -.17675623E+03 E0= -.17673219E+03  d E =-.721352E-01
       N       E                     dE             d eps       ncg     rms          rms(c)
DAV:   1    -0.176794401665E+03   -0.38161E-01   -0.25567E+00  3280   0.285E+00    0.103E-01
RMM:   2    -0.176797257059E+03   -0.28554E-02   -0.29613E-02  3260   0.743E-01    0.136E-01
RMM:   3    -0.176798520245E+03   -0.12632E-02   -0.15541E-02  4469   0.326E-01    0.828E-02
RMM:   4    -0.176798501921E+03    0.18324E-04   -0.60637E-04  3719   0.561E-02    0.727E-02
RMM:   5    -0.176798470012E+03    0.31909E-04   -0.82397E-05  2770   0.361E-02    0.673E-02
RMM:   6    -0.176798381061E+03    0.88951E-04   -0.21600E-04  3637   0.466E-02    0.347E-02
RMM:   7    -0.176798369799E+03    0.11262E-04   -0.92855E-05  3158   0.387E-02    0.180E-02
RMM:   8    -0.176798369227E+03    0.57218E-06   -0.28957E-05  2098   0.172E-02
  25 F= -.17679837E+03 E0= -.17677430E+03  d E =-.722106E-01
       N       E                     dE             d eps       ncg     rms          rms(c)
DAV:   1    -0.176754228375E+03    0.44141E-01   -0.25378E+00  3416   0.294E+00    0.122E-01
RMM:   2    -0.176757085830E+03   -0.28575E-02   -0.30320E-02  3282   0.734E-01    0.113E-01
RMM:   3    -0.176758570295E+03   -0.14845E-02   -0.16588E-02  4516   0.335E-01    0.971E-02
RMM:   4    -0.176758506736E+03    0.63560E-04   -0.71810E-04  4125   0.631E-02    0.755E-02
RMM:   5    -0.176758451258E+03    0.55478E-04   -0.98686E-05  3194   0.391E-02    0.634E-02
RMM:   6    -0.176758391899E+03    0.59359E-04   -0.28134E-04  3703   0.534E-02    0.347E-02
RMM:   7    -0.176758383507E+03    0.83922E-05   -0.92532E-05  3179   0.398E-02
  26 F= -.17675838E+03 E0= -.17673436E+03  d E =-.720589E-01
       N       E                     dE             d eps       ncg     rms          rms(c)
DAV:   1    -0.176758049014E+03    0.34289E-03   -0.25447E+00  3268   0.289E+00    0.150E-01
RMM:   2    -0.176760939905E+03   -0.28909E-02   -0.30600E-02  3255   0.751E-01    0.186E-01
RMM:   3    -0.176762069760E+03   -0.11299E-02   -0.16297E-02  4371   0.353E-01    0.105E-01
RMM:   4    -0.176762016438E+03    0.53321E-04   -0.10644E-03  4251   0.728E-02    0.822E-02
RMM:   5    -0.176761963359E+03    0.53080E-04   -0.13980E-04  3237   0.441E-02    0.722E-02
RMM:   6    -0.176761891121E+03    0.72238E-04   -0.25901E-04  3446   0.578E-02    0.408E-02
RMM:   7    -0.176761870903E+03    0.20217E-04   -0.97531E-05  3108   0.406E-02    0.115E-02
RMM:   8    -0.176761872965E+03   -0.20614E-05   -0.36718E-05  2244   0.173E-02
  27 F= -.17676187E+03 E0= -.17673789E+03  d E =-.719528E-01
       N       E                     dE             d eps       ncg     rms          rms(c)
DAV:   1    -0.176761672811E+03    0.19809E-03   -0.25376E+00  3268   0.289E+00    0.154E-01
RMM:   2    -0.176764647273E+03   -0.29745E-02   -0.30849E-02  3263   0.763E-01    0.209E-01
RMM:   3    -0.176765476166E+03   -0.82889E-03   -0.14992E-02  4215   0.347E-01    0.986E-02
RMM:   4    -0.176765475242E+03    0.92420E-06   -0.15148E-03  4275   0.892E-02    0.778E-02
RMM:   5    -0.176765432327E+03    0.42915E-04   -0.15749E-04  3243   0.480E-02    0.675E-02
RMM:   6    -0.176765368833E+03    0.63494E-04   -0.21187E-04  3375   0.516E-02    0.334E-02
RMM:   7    -0.176765357903E+03    0.10930E-04   -0.88349E-05  3130   0.388E-02    0.123E-02
RMM:   8    -0.176765359389E+03   -0.14867E-05   -0.35686E-05  2214   0.186E-02
  28 F= -.17676536E+03 E0= -.17674136E+03  d E =-.720055E-01
       N       E                     dE             d eps       ncg     rms          rms(c)
DAV:   1    -0.176757957026E+03    0.74009E-02   -0.25436E+00  3340   0.296E+00    0.119E-01
RMM:   2    -0.176760701906E+03   -0.27449E-02   -0.29749E-02  3260   0.737E-01    0.114E-01
RMM:   3    -0.176762211881E+03   -0.15100E-02   -0.17167E-02  4517   0.351E-01    0.923E-02
RMM:   4    -0.176762161246E+03    0.50635E-04   -0.75833E-04  4161   0.636E-02    0.748E-02
RMM:   5    -0.176762123053E+03    0.38193E-04   -0.89376E-05  2992   0.362E-02    0.671E-02
RMM:   6    -0.176762051004E+03    0.72049E-04   -0.21823E-04  3617   0.471E-02    0.346E-02
RMM:   7    -0.176762046145E+03    0.48594E-05   -0.12144E-04  3255   0.426E-02    0.219E-02
RMM:   8    -0.176762042561E+03    0.35838E-05   -0.38093E-05  2420   0.234E-02
  29 F= -.17676204E+03 E0= -.17673803E+03  d E =-.720419E-01
       N       E                     dE             d eps       ncg     rms          rms(c)
DAV:   1    -0.176754544534E+03    0.75016E-02   -0.25621E+00  3252   0.287E+00    0.102E-01
RMM:   2    -0.176757408656E+03   -0.28641E-02   -0.30111E-02  3262   0.747E-01    0.129E-01
RMM:   3    -0.176758761345E+03   -0.13527E-02   -0.16413E-02  4543   0.336E-01    0.765E-02
RMM:   4    -0.176758741462E+03    0.19883E-04   -0.50695E-04  3267   0.511E-02    0.691E-02
RMM:   5    -0.176758698442E+03    0.43020E-04   -0.10091E-04  2997   0.435E-02    0.595E-02
RMM:   6    -0.176758626667E+03    0.71775E-04   -0.22743E-04  3719   0.464E-02    0.300E-02
RMM:   7    -0.176758622960E+03    0.37068E-05   -0.67318E-05  2965   0.324E-02
  30 F= -.17675862E+03 E0= -.17673454E+03  d E =-.722564E-01
       N       E                     dE             d eps       ncg     rms          rms(c)
DAV:   1    -0.176761289608E+03   -0.26629E-02   -0.25688E+00  3264   0.286E+00    0.896E-02
RMM:   2    -0.176763995181E+03   -0.27056E-02   -0.28239E-02  3255   0.715E-01    0.780E-02
RMM:   3    -0.176765437313E+03   -0.14421E-02   -0.15599E-02  4542   0.319E-01    0.837E-02
RMM:   4    -0.176765402450E+03    0.34863E-04   -0.53809E-04  3936   0.529E-02    0.708E-02
RMM:   5    -0.176765365551E+03    0.36899E-04   -0.49772E-05  2316   0.244E-02    0.607E-02
RMM:   6    -0.176765306063E+03    0.59488E-04   -0.34790E-04  4215   0.541E-02    0.466E-02
RMM:   7    -0.176765300200E+03    0.58627E-05   -0.85049E-05  3189   0.372E-02
  31 F= -.17676530E+03 E0= -.17674125E+03  d E =-.721423E-01
       N       E                     dE             d eps       ncg     rms          rms(c)
DAV:   1    -0.176758980250E+03    0.63258E-02   -0.25624E+00  3340   0.292E+00    0.123E-01
RMM:   2    -0.176761858415E+03   -0.28782E-02   -0.31100E-02  3253   0.773E-01    0.157E-01
RMM:   3    -0.176763091197E+03   -0.12328E-02   -0.16624E-02  4495   0.358E-01    0.859E-02
RMM:   4    -0.176763072833E+03    0.18363E-04   -0.71589E-04  3492   0.597E-02    0.769E-02
RMM:   5    -0.176763015775E+03    0.57058E-04   -0.13340E-04  3188   0.497E-02    0.663E-02
RMM:   6    -0.176762934881E+03    0.80895E-04   -0.26129E-04  3584   0.547E-02    0.332E-02
RMM:   7    -0.176762929204E+03    0.56763E-05   -0.95497E-05  3188   0.386E-02
  32 F= -.17676293E+03 E0= -.17673891E+03  d E =-.720694E-01
       N       E                     dE             d eps       ncg     rms          rms(c)
DAV:   1    -0.176757882716E+03    0.50522E-02   -0.25536E+00  3256   0.288E+00    0.101E-01
RMM:   2    -0.176760707624E+03   -0.28249E-02   -0.29820E-02  3253   0.742E-01    0.115E-01
RMM:   3    -0.176762156319E+03   -0.14487E-02   -0.16804E-02  4538   0.338E-01    0.809E-02
RMM:   4    -0.176762127832E+03    0.28487E-04   -0.53246E-04  3318   0.523E-02    0.714E-02
RMM:   5    -0.176762067404E+03    0.60428E-04   -0.11993E-04  3116   0.470E-02    0.589E-02
RMM:   6    -0.176762007528E+03    0.59876E-04   -0.27164E-04  3731   0.517E-02    0.334E-02
RMM:   7    -0.176761999540E+03    0.79882E-05   -0.69405E-05  3113   0.342E-02
  33 F= -.17676200E+03 E0= -.17673800E+03  d E =-.720076E-01
       N       E                     dE             d eps       ncg     rms          rms(c)
DAV:   1    -0.176758113133E+03    0.38944E-02   -0.25653E+00  3276   0.289E+00    0.949E-02
RMM:   2    -0.176760753373E+03   -0.26402E-02   -0.27817E-02  3254   0.730E-01    0.865E-02
RMM:   3    -0.176762113398E+03   -0.13600E-02   -0.14866E-02  4560   0.316E-01    0.880E-02
RMM:   4    -0.176762055802E+03    0.57596E-04   -0.46712E-04  3878   0.510E-02    0.707E-02
RMM:   5    -0.176762020533E+03    0.35269E-04   -0.78760E-05  2900   0.354E-02    0.642E-02
RMM:   6    -0.176761946651E+03    0.73882E-04   -0.22224E-04  3793   0.463E-02    0.315E-02
RMM:   7    -0.176761937318E+03    0.93331E-05   -0.84505E-05  3149   0.374E-02
  34 F= -.17676194E+03 E0= -.17673795E+03  d E =-.719740E-01
       N       E                     dE             d eps       ncg     rms          rms(c)
DAV:   1    -0.176756847773E+03    0.50989E-02   -0.25648E+00  3308   0.293E+00    0.132E-01
RMM:   2    -0.176759787176E+03   -0.29394E-02   -0.31839E-02  3260   0.786E-01    0.175E-01
RMM:   3    -0.176760884765E+03   -0.10976E-02   -0.16416E-02  4448   0.365E-01    0.829E-02
RMM:   4    -0.176760886627E+03   -0.18620E-05   -0.91312E-04  3624   0.651E-02    0.745E-02
RMM:   5    -0.176760828630E+03    0.57996E-04   -0.12613E-04  3213   0.479E-02    0.621E-02
RMM:   6    -0.176760754985E+03    0.73646E-04   -0.24129E-04  3510   0.544E-02    0.306E-02
RMM:   7    -0.176760750632E+03    0.43526E-05   -0.92161E-05  3177   0.379E-02
  35 F= -.17676075E+03 E0= -.17673672E+03  d E =-.721002E-01
       N       E                     dE             d eps       ncg     rms          rms(c)
DAV:   1    -0.176757896271E+03    0.28587E-02   -0.25609E+00  3252   0.289E+00    0.937E-02
RMM:   2    -0.176760705165E+03   -0.28089E-02   -0.29357E-02  3257   0.733E-01    0.101E-01
RMM:   3    -0.176762196969E+03   -0.14918E-02   -0.16766E-02  4549   0.337E-01    0.786E-02
RMM:   4    -0.176762172163E+03    0.24806E-04   -0.52057E-04  3378   0.529E-02    0.693E-02
RMM:   5    -0.176762118744E+03    0.53419E-04   -0.10548E-04  3038   0.436E-02    0.566E-02
RMM:   6    -0.176762059095E+03    0.59649E-04   -0.27902E-04  3871   0.498E-02    0.295E-02
RMM:   7    -0.176762056073E+03    0.30219E-05   -0.57435E-05  2858   0.307E-02
  36 F= -.17676206E+03 E0= -.17673808E+03  d E =-.719268E-01
       N       E                     dE             d eps       ncg     rms          rms(c)
DAV:   1    -0.176759301605E+03    0.27575E-02   -0.25721E+00  3268   0.289E+00    0.910E-02
RMM:   2    -0.176761943920E+03   -0.26423E-02   -0.27735E-02  3246   0.727E-01    0.818E-02
RMM:   3    -0.176763301442E+03   -0.13575E-02   -0.14816E-02  4553   0.315E-01    0.832E-02
RMM:   4    -0.176763261529E+03    0.39913E-04   -0.47448E-04  3799   0.506E-02    0.695E-02
RMM:   5    -0.176763215914E+03    0.45614E-04   -0.60561E-05  2508   0.309E-02    0.571E-02
RMM:   6    -0.176763167108E+03    0.48806E-04   -0.31181E-04  4207   0.515E-02    0.385E-02
RMM:   7    -0.176763156105E+03    0.11003E-04   -0.66503E-05  3084   0.339E-02    0.238E-02
RMM:   8    -0.176763150163E+03    0.59425E-05   -0.14481E-05  1877   0.143E-02
  37 F= -.17676315E+03 E0= -.17673916E+03  d E =-.719828E-01
       N       E                     dE             d eps       ncg     rms          rms(c)
DAV:   1    -0.176758696685E+03    0.44594E-02   -0.25633E+00  3352   0.293E+00    0.125E-01
RMM:   2    -0.176761644900E+03   -0.29482E-02   -0.31756E-02  3253   0.786E-01    0.170E-01
RMM:   3    -0.176762814031E+03   -0.11691E-02   -0.16609E-02  4468   0.362E-01    0.820E-02
RMM:   4    -0.176762811899E+03    0.21318E-05   -0.82066E-04  3524   0.627E-02    0.742E-02
RMM:   5    -0.176762761342E+03    0.50557E-04   -0.13147E-04  3182   0.493E-02    0.629E-02
RMM:   6    -0.176762683325E+03    0.78017E-04   -0.23536E-04  3497   0.534E-02    0.262E-02
RMM:   7    -0.176762682870E+03    0.45569E-06   -0.84572E-05  3124   0.356E-02
  38 F= -.17676268E+03 E0= -.17673863E+03  d E =-.721710E-01
       N       E                     dE             d eps       ncg     rms          rms(c)
DAV:   1    -0.176758129512E+03    0.45538E-02   -0.25550E+00  3272   0.289E+00    0.101E-01
RMM:   2    -0.176760944026E+03   -0.28145E-02   -0.29725E-02  3254   0.745E-01    0.113E-01
RMM:   3    -0.176762381203E+03   -0.14372E-02   -0.16638E-02  4537   0.339E-01    0.813E-02
RMM:   4    -0.176762349317E+03    0.31886E-04   -0.50779E-04  3351   0.520E-02    0.715E-02
RMM:   5    -0.176762287690E+03    0.61627E-04   -0.12080E-04  3133   0.471E-02    0.586E-02
RMM:   6    -0.176762224481E+03    0.63209E-04   -0.28084E-04  3759   0.527E-02    0.288E-02
RMM:   7    -0.176762218690E+03    0.57907E-05   -0.61141E-05  2942   0.319E-02
  39 F= -.17676222E+03 E0= -.17673819E+03  d E =-.720840E-01
       N       E                     dE             d eps       ncg     rms          rms(c)
DAV:   1    -0.176758673953E+03    0.35505E-02   -0.25671E+00  3276   0.290E+00    0.951E-02
RMM:   2    -0.176761309047E+03   -0.26351E-02   -0.27807E-02  3250   0.732E-01    0.823E-02
RMM:   3    -0.176762672139E+03   -0.13631E-02   -0.14838E-02  4553   0.317E-01    0.878E-02
RMM:   4    -0.176762615655E+03    0.56484E-04   -0.49772E-04  4112   0.520E-02    0.704E-02
RMM:   5    -0.176762572945E+03    0.42710E-04   -0.54350E-05  2471   0.288E-02    0.599E-02
RMM:   6    -0.176762518559E+03    0.54385E-04   -0.26617E-04  4091   0.497E-02    0.398E-02
RMM:   7    -0.176762503461E+03    0.15098E-04   -0.79606E-05  3144   0.367E-02    0.215E-02
RMM:   8    -0.176762499160E+03    0.43016E-05   -0.18659E-05  1876   0.161E-02
  40 F= -.17676250E+03 E0= -.17673851E+03  d E =-.719725E-01
       N       E                     dE             d eps       ncg     rms          rms(c)
DAV:   1    -0.176758791252E+03    0.37122E-02   -0.25619E+00  3332   0.294E+00    0.130E-01
RMM:   2    -0.176761734254E+03   -0.29430E-02   -0.31921E-02  3250   0.786E-01    0.173E-01
RMM:   3    -0.176762897262E+03   -0.11630E-02   -0.16876E-02  4457   0.370E-01    0.833E-02
RMM:   4    -0.176762895234E+03    0.20278E-05   -0.90975E-04  3508   0.651E-02    0.748E-02
RMM:   5    -0.176762838759E+03    0.56475E-04   -0.13254E-04  3210   0.495E-02    0.630E-02
RMM:   6    -0.176762764201E+03    0.74558E-04   -0.21831E-04  3413   0.521E-02    0.343E-02
RMM:   7    -0.176762759941E+03    0.42604E-05   -0.11100E-04  3230   0.389E-02    0.208E-02
RMM:   8    -0.176762757694E+03    0.22472E-05   -0.36777E-05  2376   0.213E-02
  41 F= -.17676276E+03 E0= -.17673876E+03  d E =-.719903E-01
       N       E                     dE             d eps       ncg     rms          rms(c)
DAV:   1    -0.176757566917E+03    0.51930E-02   -0.25572E+00  3252   0.289E+00    0.989E-02
RMM:   2    -0.176760373537E+03   -0.28066E-02   -0.29607E-02  3251   0.743E-01    0.112E-01
RMM:   3    -0.176761800577E+03   -0.14270E-02   -0.16482E-02  4526   0.336E-01    0.795E-02
RMM:   4    -0.176761773894E+03    0.26683E-04   -0.53125E-04  3319   0.526E-02    0.701E-02
RMM:   5    -0.176761708936E+03    0.64957E-04   -0.12888E-04  3176   0.495E-02    0.560E-02
RMM:   6    -0.176761652260E+03    0.56676E-04   -0.26465E-04  3679   0.515E-02    0.284E-02
RMM:   7    -0.176761647091E+03    0.51691E-05   -0.61214E-05  2891   0.318E-02
  42 F= -.17676165E+03 E0= -.17673764E+03  d E =-.720108E-01
       N       E                     dE             d eps       ncg     rms          rms(c)
DAV:   1    -0.176758766710E+03    0.28856E-02   -0.25662E+00  3276   0.290E+00    0.947E-02
RMM:   2    -0.176761421188E+03   -0.26545E-02   -0.27958E-02  3255   0.732E-01    0.800E-02
RMM:   3    -0.176762810921E+03   -0.13897E-02   -0.15075E-02  4554   0.320E-01    0.882E-02
RMM:   4    -0.176762757017E+03    0.53904E-04   -0.51922E-04  4174   0.532E-02    0.704E-02
RMM:   5    -0.176762715249E+03    0.41768E-04   -0.46930E-05  2270   0.264E-02    0.594E-02
RMM:   6    -0.176762656326E+03    0.58923E-04   -0.30778E-04  4211   0.520E-02    0.358E-02
RMM:   7    -0.176762647691E+03    0.86346E-05   -0.72975E-05  3127   0.353E-02
  43 F= -.17676265E+03 E0= -.17673865E+03  d E =-.720004E-01
       N       E                     dE             d eps       ncg     rms          rms(c)
DAV:   1    -0.176757063601E+03    0.55927E-02   -0.25617E+00  3336   0.293E+00    0.127E-01
RMM:   2    -0.176759963845E+03   -0.29002E-02   -0.31398E-02  3251   0.777E-01    0.162E-01
RMM:   3    -0.176761181170E+03   -0.12173E-02   -0.16826E-02  4483   0.363E-01    0.853E-02
RMM:   4    -0.176761164529E+03    0.16642E-04   -0.76476E-04  3490   0.610E-02    0.758E-02
RMM:   5    -0.176761097727E+03    0.66802E-04   -0.14570E-04  3226   0.522E-02    0.621E-02
RMM:   6    -0.176761027325E+03    0.70402E-04   -0.24581E-04  3453   0.555E-02    0.306E-02
RMM:   7    -0.176761023648E+03    0.36775E-05   -0.95429E-05  3171   0.382E-02
  44 F= -.17676102E+03 E0= -.17673702E+03  d E =-.720211E-01
       N       E                     dE             d eps       ncg     rms          rms(c)
DAV:   1    -0.176757926229E+03    0.31011E-02   -0.25545E+00  3248   0.288E+00    0.102E-01
RMM:   2    -0.176760750755E+03   -0.28245E-02   -0.29838E-02  3257   0.745E-01    0.119E-01
RMM:   3    -0.176762168576E+03   -0.14178E-02   -0.16629E-02  4524   0.338E-01    0.806E-02
RMM:   4    -0.176762142911E+03    0.25665E-04   -0.55344E-04  3297   0.528E-02    0.713E-02
RMM:   5    -0.176762065357E+03    0.77554E-04   -0.13158E-04  3178   0.498E-02    0.528E-02
RMM:   6    -0.176762016631E+03    0.48725E-04   -0.26465E-04  3662   0.508E-02    0.281E-02
RMM:   7    -0.176762010681E+03    0.59507E-05   -0.54284E-05  2774   0.295E-02
  45 F= -.17676201E+03 E0= -.17673799E+03  d E =-.720569E-01
       N       E                     dE             d eps       ncg     rms          rms(c)
DAV:   1    -0.176758112133E+03    0.39045E-02   -0.25650E+00  3264   0.289E+00    0.948E-02
RMM:   2    -0.176760753293E+03   -0.26412E-02   -0.27821E-02  3253   0.730E-01    0.857E-02
RMM:   3    -0.176762111743E+03   -0.13584E-02   -0.14858E-02  4556   0.315E-01    0.871E-02
RMM:   4    -0.176762055427E+03    0.56316E-04   -0.46690E-04  3856   0.508E-02    0.701E-02
RMM:   5    -0.176762016281E+03    0.39146E-04   -0.79465E-05  2908   0.357E-02    0.625E-02
RMM:   6    -0.176761951354E+03    0.64926E-04   -0.22177E-04  3776   0.471E-02    0.342E-02
RMM:   7    -0.176761939194E+03    0.12160E-04   -0.81498E-05  3144   0.364E-02    0.171E-02
RMM:   8    -0.176761937281E+03    0.19136E-05   -0.23480E-05  1963   0.166E-02
  46 F= -.17676194E+03 E0= -.17673794E+03  d E =-.719855E-01
       N       E                     dE             d eps       ncg     rms          rms(c)
DAV:   1    -0.176757893593E+03    0.40456E-02   -0.25606E+00  3304   0.292E+00    0.132E-01
RMM:   2    -0.176760849861E+03   -0.29563E-02   -0.32056E-02  3249   0.780E-01    0.175E-01
RMM:   3    -0.176762008862E+03   -0.11590E-02   -0.17029E-02  4425   0.370E-01    0.827E-02
RMM:   4    -0.176762015176E+03   -0.63133E-05   -0.10042E-03  3513   0.677E-02    0.744E-02
RMM:   5    -0.176761945998E+03    0.69178E-04   -0.13363E-04  3220   0.495E-02    0.584E-02
RMM:   6    -0.176761881137E+03    0.64861E-04   -0.24077E-04  3465   0.547E-02    0.303E-02
RMM:   7    -0.176761877554E+03    0.35829E-05   -0.88944E-05  3132   0.367E-02
  47 F= -.17676188E+03 E0= -.17673785E+03  d E =-.720712E-01
       N       E                     dE             d eps       ncg     rms          rms(c)
DAV:   1    -0.176757799448E+03    0.40817E-02   -0.25548E+00  3260   0.285E+00    0.100E-01
RMM:   2    -0.176760619633E+03   -0.28202E-02   -0.29756E-02  3253   0.734E-01    0.117E-01
RMM:   3    -0.176762048824E+03   -0.14292E-02   -0.16671E-02  4538   0.333E-01    0.802E-02
RMM:   4    -0.176762019530E+03    0.29294E-04   -0.50533E-04  3270   0.508E-02    0.711E-02
RMM:   5    -0.176761959179E+03    0.60351E-04   -0.12492E-04  3130   0.479E-02    0.600E-02
RMM:   6    -0.176761898330E+03    0.60849E-04   -0.26638E-04  3694   0.513E-02    0.318E-02
RMM:   7    -0.176761890684E+03    0.76460E-05   -0.59841E-05  2888   0.309E-02
  48 F= -.17676189E+03 E0= -.17673792E+03  d E =-.719265E-01
       N       E                     dE             d eps       ncg     rms          rms(c)
DAV:   1    -0.176758807123E+03    0.30912E-02   -0.25660E+00  3316   0.283E+00    0.937E-02
RMM:   2    -0.176761446461E+03   -0.26393E-02   -0.27817E-02  3250   0.714E-01    0.845E-02
RMM:   3    -0.176762806072E+03   -0.13596E-02   -0.14881E-02  4516   0.310E-01    0.858E-02
RMM:   4    -0.176762753867E+03    0.52204E-04   -0.47121E-04  3710   0.510E-02    0.697E-02
RMM:   5    -0.176762712129E+03    0.41738E-04   -0.80517E-05  2833   0.355E-02    0.613E-02
RMM:   6    -0.176762651139E+03    0.60990E-04   -0.24158E-04  3816   0.485E-02    0.365E-02
RMM:   7    -0.176762637714E+03    0.13425E-04   -0.81481E-05  3147   0.372E-02    0.179E-02
RMM:   8    -0.176762634932E+03    0.27824E-05   -0.20482E-05  1914   0.155E-02
  49 F= -.17676263E+03 E0= -.17673864E+03  d E =-.719716E-01
       N       E                     dE             d eps       ncg     rms          rms(c)
DAV:   1    -0.176758004163E+03    0.46336E-02   -0.25613E+00  3340   0.293E+00    0.127E-01
RMM:   2    -0.176760940328E+03   -0.29362E-02   -0.31754E-02  3247   0.783E-01    0.169E-01
RMM:   3    -0.176762111626E+03   -0.11713E-02   -0.16707E-02  4437   0.365E-01    0.826E-02
RMM:   4    -0.176762115816E+03   -0.41891E-05   -0.93398E-04  3514   0.665E-02    0.746E-02
RMM:   5    -0.176762050937E+03    0.64879E-04   -0.14067E-04  3212   0.509E-02    0.609E-02
RMM:   6    -0.176761980295E+03    0.70642E-04   -0.24670E-04  3486   0.554E-02    0.302E-02
RMM:   7    -0.176761976829E+03    0.34657E-05   -0.91492E-05  3181   0.379E-02
  50 F= -.17676198E+03 E0= -.17673797E+03  d E =-.720171E-01
       N       E                     dE             d eps       ncg     rms          rms(c)
DAV:   1    -0.176757753980E+03    0.42263E-02   -0.25556E+00  3264   0.288E+00    0.101E-01
RMM:   2    -0.176760571937E+03   -0.28180E-02   -0.29818E-02  3257   0.741E-01    0.117E-01
RMM:   3    -0.176762004672E+03   -0.14327E-02   -0.16687E-02  4524   0.338E-01    0.815E-02
RMM:   4    -0.176761975353E+03    0.29319E-04   -0.54234E-04  3383   0.533E-02    0.715E-02
RMM:   5    -0.176761926410E+03    0.48942E-04   -0.10613E-04  2988   0.436E-02    0.615E-02
RMM:   6    -0.176761851523E+03    0.74887E-04   -0.26721E-04  3803   0.505E-02    0.312E-02
RMM:   7    -0.176761845927E+03    0.55968E-05   -0.68707E-05  3128   0.341E-02
  51 F= -.17676185E+03 E0= -.17673782E+03  d E =-.720722E-01
       N       E                     dE             d eps       ncg     rms          rms(c)
DAV:   1    -0.176756190693E+03    0.56608E-02   -0.25664E+00  3272   0.290E+00    0.124E-01
RMM:   2    -0.176758996776E+03   -0.28061E-02   -0.30222E-02  3249   0.757E-01    0.160E-01
RMM:   3    -0.176760082964E+03   -0.10862E-02   -0.15373E-02  4411   0.347E-01    0.823E-02
RMM:   4    -0.176760085808E+03   -0.28438E-05   -0.87260E-04  3498   0.640E-02    0.731E-02
RMM:   5    -0.176760042338E+03    0.43470E-04   -0.13051E-04  3205   0.486E-02    0.666E-02
RMM:   6    -0.176759958261E+03    0.84078E-04   -0.24519E-04  3574   0.525E-02    0.299E-02
RMM:   7    -0.176759955206E+03    0.30546E-05   -0.79242E-05  3138   0.354E-02
  52 F= -.17675996E+03 E0= -.17673588E+03  d E =-.722251E-01
       N       E                     dE             d eps       ncg     rms          rms(c)
DAV:   1    -0.176758032735E+03    0.19255E-02   -0.25568E+00  3320   0.292E+00    0.105E-01
RMM:   2    -0.176760828717E+03   -0.27960E-02   -0.29751E-02  3252   0.752E-01    0.119E-01
RMM:   3    -0.176762241816E+03   -0.14131E-02   -0.16601E-02  4548   0.345E-01    0.856E-02
RMM:   4    -0.176762200102E+03    0.41714E-04   -0.53714E-04  3600   0.545E-02    0.744E-02
RMM:   5    -0.176762157640E+03    0.42462E-04   -0.10047E-04  2988   0.418E-02    0.658E-02
RMM:   6    -0.176762076653E+03    0.80987E-04   -0.23296E-04  3661   0.503E-02    0.407E-02
RMM:   7    -0.176762061077E+03    0.15576E-04   -0.11600E-04  3211   0.442E-02    0.176E-02
RMM:   8    -0.176762060628E+03    0.44876E-06   -0.37279E-05  2274   0.192E-02
  53 F= -.17676206E+03 E0= -.17673804E+03  d E =-.720473E-01
       N       E                     dE             d eps       ncg     rms          rms(c)
DAV:   1    -0.176757372891E+03    0.46882E-02   -0.25574E+00  3252   0.287E+00    0.100E-01
RMM:   2    -0.176760195475E+03   -0.28226E-02   -0.29762E-02  3258   0.737E-01    0.116E-01
RMM:   3    -0.176761628643E+03   -0.14332E-02   -0.16638E-02  4536   0.334E-01    0.800E-02
RMM:   4    -0.176761598931E+03    0.29712E-04   -0.51656E-04  3297   0.517E-02    0.703E-02
RMM:   5    -0.176761540787E+03    0.58145E-04   -0.11960E-04  3121   0.469E-02    0.582E-02
RMM:   6    -0.176761476956E+03    0.63830E-04   -0.27505E-04  3745   0.520E-02    0.277E-02
RMM:   7    -0.176761471594E+03    0.53627E-05   -0.56319E-05  2792   0.306E-02
  54 F= -.17676147E+03 E0= -.17673748E+03  d E =-.719885E-01
       N       E                     dE             d eps       ncg     rms          rms(c)
DAV:   1    -0.176756250964E+03    0.52260E-02   -0.25685E+00  3272   0.287E+00    0.124E-01
RMM:   2    -0.176759050111E+03   -0.27991E-02   -0.30159E-02  3244   0.747E-01    0.158E-01
RMM:   3    -0.176760135767E+03   -0.10857E-02   -0.15275E-02  4358   0.342E-01    0.828E-02
RMM:   4    -0.176760141746E+03   -0.59791E-05   -0.92321E-04  3725   0.666E-02    0.732E-02
RMM:   5    -0.176760095644E+03    0.46102E-04   -0.12584E-04  3134   0.462E-02    0.658E-02
RMM:   6    -0.176760012206E+03    0.83439E-04   -0.25829E-04  3637   0.524E-02    0.261E-02
RMM:   7    -0.176760009274E+03    0.29317E-05   -0.60136E-05  2777   0.291E-02
  55 F= -.17676001E+03 E0= -.17673597E+03  d E =-.721298E-01
       N       E                     dE             d eps       ncg     rms          rms(c)
DAV:   1    -0.176757813517E+03    0.21987E-02   -0.25588E+00  3376   0.293E+00    0.105E-01
RMM:   2    -0.176760609268E+03   -0.27958E-02   -0.29699E-02  3250   0.754E-01    0.120E-01
RMM:   3    -0.176762015092E+03   -0.14058E-02   -0.16585E-02  4539   0.346E-01    0.852E-02
RMM:   4    -0.176761975430E+03    0.39662E-04   -0.54266E-04  3607   0.547E-02    0.741E-02
RMM:   5    -0.176761924919E+03    0.50511E-04   -0.11073E-04  3073   0.442E-02    0.636E-02
RMM:   6    -0.176761848557E+03    0.76362E-04   -0.26687E-04  3774   0.524E-02    0.361E-02
RMM:   7    -0.176761837916E+03    0.10641E-04   -0.89230E-05  3179   0.387E-02    0.180E-02
RMM:   8    -0.176761836037E+03    0.18783E-05   -0.25652E-05  2012   0.165E-02
  56 F= -.17676184E+03 E0= -.17673780E+03  d E =-.721001E-01
       N       E                     dE             d eps       ncg     rms          rms(c)
DAV:   1    -0.176757510477E+03    0.43274E-02   -0.25578E+00  3256   0.290E+00    0.993E-02
RMM:   2    -0.176760336632E+03   -0.28262E-02   -0.29736E-02  3264   0.744E-01    0.112E-01
RMM:   3    -0.176761782504E+03   -0.14459E-02   -0.16661E-02  4536   0.337E-01    0.790E-02
RMM:   4    -0.176761753781E+03    0.28723E-04   -0.50378E-04  3324   0.514E-02    0.697E-02
RMM:   5    -0.176761695958E+03    0.57824E-04   -0.11660E-04  3147   0.468E-02    0.567E-02
RMM:   6    -0.176761634784E+03    0.61174E-04   -0.25793E-04  3727   0.501E-02    0.279E-02
RMM:   7    -0.176761630069E+03    0.47153E-05   -0.58965E-05  2882   0.311E-02
  57 F= -.17676163E+03 E0= -.17673760E+03  d E =-.720937E-01
       N       E                     dE             d eps       ncg     rms          rms(c)
DAV:   1    -0.176754960336E+03    0.66744E-02   -0.25686E+00  3268   0.291E+00    0.122E-01
RMM:   2    -0.176757748089E+03   -0.27878E-02   -0.30054E-02  3254   0.757E-01    0.152E-01
RMM:   3    -0.176758875708E+03   -0.11276E-02   -0.15395E-02  4440   0.345E-01    0.821E-02
RMM:   4    -0.176758867704E+03    0.80042E-05   -0.75131E-04  3444   0.602E-02    0.724E-02
RMM:   5    -0.176758817471E+03    0.50234E-04   -0.14876E-04  3227   0.524E-02    0.647E-02
RMM:   6    -0.176758739672E+03    0.77798E-04   -0.23594E-04  3481   0.533E-02    0.243E-02
RMM:   7    -0.176758739234E+03    0.43847E-06   -0.69024E-05  2922   0.297E-02
  58 F= -.17675874E+03 E0= -.17673468E+03  d E =-.721750E-01
       N       E                     dE             d eps       ncg     rms          rms(c)
DAV:   1    -0.176757764822E+03    0.97485E-03   -0.25590E+00  3328   0.294E+00    0.106E-01
RMM:   2    -0.176760563725E+03   -0.27989E-02   -0.29828E-02  3254   0.759E-01    0.121E-01
RMM:   3    -0.176761968881E+03   -0.14052E-02   -0.16613E-02  4547   0.348E-01    0.857E-02
RMM:   4    -0.176761927318E+03    0.41563E-04   -0.53170E-04  3674   0.544E-02    0.744E-02
RMM:   5    -0.176761875223E+03    0.52095E-04   -0.10944E-04  3106   0.439E-02    0.633E-02
RMM:   6    -0.176761799535E+03    0.75688E-04   -0.27438E-04  3794   0.526E-02    0.351E-02
RMM:   7    -0.176761789595E+03    0.99391E-05   -0.88990E-05  3178   0.388E-02
  59 F= -.17676179E+03 E0= -.17673782E+03  d E =-.719007E-01
       N       E                     dE             d eps       ncg     rms          rms(c)
DAV:   1    -0.176758769877E+03    0.30297E-02   -0.25562E+00  3248   0.290E+00    0.995E-02
RMM:   2    -0.176761585692E+03   -0.28158E-02   -0.29671E-02  3262   0.744E-01    0.113E-01
RMM:   3    -0.176763025129E+03   -0.14394E-02   -0.16604E-02  4534   0.337E-01    0.803E-02
RMM:   4    -0.176762995734E+03    0.29395E-04   -0.51363E-04  3349   0.520E-02    0.706E-02
RMM:   5    -0.176762935601E+03    0.60134E-04   -0.11385E-04  3090   0.454E-02    0.571E-02
RMM:   6    -0.176762874595E+03    0.61006E-04   -0.27496E-04  3776   0.522E-02    0.287E-02
RMM:   7    -0.176762868831E+03    0.57641E-05   -0.59470E-05  2884   0.315E-02
  60 F= -.17676287E+03 E0= -.17673886E+03  d E =-.720341E-01
       N       E                     dE             d eps       ncg     rms          rms(c)
DAV:   1    -0.176755208021E+03    0.76666E-02   -0.25669E+00  3264   0.291E+00    0.123E-01
RMM:   2    -0.176758002878E+03   -0.27949E-02   -0.30100E-02  3251   0.757E-01    0.154E-01
RMM:   3    -0.176759124408E+03   -0.11215E-02   -0.15427E-02  4429   0.346E-01    0.821E-02
RMM:   4    -0.176759120365E+03    0.40431E-05   -0.77842E-04  3475   0.616E-02    0.727E-02
RMM:   5    -0.176759069676E+03    0.50689E-04   -0.14219E-04  3228   0.510E-02    0.643E-02
RMM:   6    -0.176758992155E+03    0.77521E-04   -0.23898E-04  3494   0.538E-02    0.257E-02
RMM:   7    -0.176758990142E+03    0.20132E-05   -0.70437E-05  3002   0.323E-02
  61 F= -.17675899E+03 E0= -.17673502E+03  d E =-.719151E-01
       N       E                     dE             d eps       ncg     rms          rms(c)
DAV:   1    -0.176757548658E+03    0.14435E-02   -0.25582E+00  3336   0.294E+00    0.105E-01
RMM:   2    -0.176760317168E+03   -0.27685E-02   -0.29495E-02  3257   0.758E-01    0.117E-01
RMM:   3    -0.176761719516E+03   -0.14023E-02   -0.16376E-02  4553   0.343E-01    0.855E-02
RMM:   4    -0.176761673467E+03    0.46049E-04   -0.51830E-04  3662   0.538E-02    0.739E-02
RMM:   5    -0.176761617240E+03    0.56227E-04   -0.10638E-04  3091   0.430E-02    0.613E-02
RMM:   6    -0.176761546276E+03    0.70964E-04   -0.28268E-04  3863   0.519E-02    0.352E-02
RMM:   7    -0.176761535780E+03    0.10496E-04   -0.83561E-05  3169   0.375E-02    0.176E-02
RMM:   8    -0.176761533490E+03    0.22897E-05   -0.22116E-05  1928   0.154E-02
  62 F= -.17676153E+03 E0= -.17673748E+03  d E =-.721588E-01
       N       E                     dE             d eps       ncg     rms          rms(c)
DAV:   1    -0.176758036323E+03    0.34995E-02   -0.25561E+00  3260   0.290E+00    0.991E-02
RMM:   2    -0.176760863829E+03   -0.28275E-02   -0.29692E-02  3257   0.746E-01    0.116E-01
RMM:   3    -0.176762284106E+03   -0.14203E-02   -0.16531E-02  4530   0.337E-01    0.788E-02
RMM:   4    -0.176762257531E+03    0.26575E-04   -0.51869E-04  3316   0.521E-02    0.697E-02
RMM:   5    -0.176762209096E+03    0.48435E-04   -0.11990E-04  3092   0.472E-02    0.611E-02
RMM:   6    -0.176762140288E+03    0.68808E-04   -0.23977E-04  3722   0.471E-02    0.291E-02
RMM:   7    -0.176762135301E+03    0.49864E-05   -0.59469E-05  2797   0.287E-02
  63 F= -.17676214E+03 E0= -.17673811E+03  d E =-.720789E-01
       N       E                     dE             d eps       ncg     rms          rms(c)
DAV:   1    -0.176756200920E+03    0.59394E-02   -0.25675E+00  3264   0.292E+00    0.124E-01
RMM:   2    -0.176758983606E+03   -0.27827E-02   -0.30006E-02  3246   0.760E-01    0.155E-01
RMM:   3    -0.176760074576E+03   -0.10910E-02   -0.15239E-02  4437   0.347E-01    0.823E-02
RMM:   4    -0.176760074569E+03    0.72396E-08   -0.82463E-04  3439   0.616E-02    0.730E-02
RMM:   5    -0.176760020968E+03    0.53601E-04   -0.15760E-04  3233   0.544E-02    0.658E-02
RMM:   6    -0.176759946815E+03    0.74153E-04   -0.22621E-04  3413   0.542E-02    0.297E-02
RMM:   7    -0.176759944705E+03    0.21095E-05   -0.86903E-05  3137   0.333E-02
  64 F= -.17675994E+03 E0= -.17673591E+03  d E =-.721141E-01
       N       E                     dE             d eps       ncg     rms          rms(c)
DAV:   1    -0.176758338232E+03    0.16086E-02   -0.25590E+00  3340   0.294E+00    0.105E-01
RMM:   2    -0.176761114289E+03   -0.27761E-02   -0.29531E-02  3252   0.757E-01    0.117E-01
RMM:   3    -0.176762517769E+03   -0.14035E-02   -0.16428E-02  4559   0.345E-01    0.860E-02
RMM:   4    -0.176762472298E+03    0.45471E-04   -0.49854E-04  3453   0.530E-02    0.742E-02
RMM:   5    -0.176762406087E+03    0.66212E-04   -0.12439E-04  3112   0.474E-02    0.594E-02
RMM:   6    -0.176762341557E+03    0.64530E-04   -0.28227E-04  3786   0.523E-02    0.303E-02
RMM:   7    -0.176762334670E+03    0.68873E-05   -0.72527E-05  3061   0.342E-02
  65 F= -.17676233E+03 E0= -.17673830E+03  d E =-.720890E-01
       N       E                     dE             d eps       ncg     rms          rms(c)
DAV:   1    -0.176757953783E+03    0.43878E-02   -0.25560E+00  3264   0.289E+00    0.998E-02
RMM:   2    -0.176760777544E+03   -0.28238E-02   -0.29716E-02  3249   0.744E-01    0.118E-01
RMM:   3    -0.176762200582E+03   -0.14230E-02   -0.16610E-02  4530   0.338E-01    0.797E-02
RMM:   4    -0.176762174184E+03    0.26398E-04   -0.52415E-04  3347   0.526E-02    0.705E-02
RMM:   5    -0.176762123068E+03    0.51116E-04   -0.11383E-04  3045   0.456E-02    0.605E-02
RMM:   6    -0.176762053847E+03    0.69221E-04   -0.26400E-04  3746   0.513E-02    0.314E-02
RMM:   7    -0.176762048520E+03    0.53267E-05   -0.65426E-05  3055   0.327E-02
  66 F= -.17676205E+03 E0= -.17673805E+03  d E =-.720001E-01
       N       E                     dE             d eps       ncg     rms          rms(c)
DAV:   1    -0.176756039206E+03    0.60146E-02   -0.25666E+00  3264   0.291E+00    0.123E-01
RMM:   2    -0.176758847010E+03   -0.28078E-02   -0.30223E-02  3252   0.758E-01    0.157E-01
RMM:   3    -0.176759958044E+03   -0.11110E-02   -0.15506E-02  4419   0.348E-01    0.822E-02
RMM:   4    -0.176759959565E+03   -0.15212E-05   -0.83168E-04  3495   0.629E-02    0.734E-02
RMM:   5    -0.176759912802E+03    0.46762E-04   -0.13295E-04  3226   0.491E-02    0.664E-02
RMM:   6    -0.176759833219E+03    0.79584E-04   -0.23613E-04  3520   0.528E-02    0.320E-02
RMM:   7    -0.176759828938E+03    0.42813E-05   -0.85339E-05  3175   0.368E-02
  67 F= -.17675983E+03 E0= -.17673581E+03  d E =-.720622E-01
       N       E                     dE             d eps       ncg     rms          rms(c)
DAV:   1    -0.176758230952E+03    0.16023E-02   -0.25580E+00  3352   0.294E+00    0.105E-01
RMM:   2    -0.176761022148E+03   -0.27912E-02   -0.29684E-02  3251   0.756E-01    0.116E-01
RMM:   3    -0.176762451219E+03   -0.14291E-02   -0.16660E-02  4547   0.347E-01    0.854E-02
RMM:   4    -0.176762409666E+03    0.41553E-04   -0.52145E-04  3460   0.543E-02    0.741E-02
RMM:   5    -0.176762367833E+03    0.41834E-04   -0.10603E-04  3062   0.436E-02    0.659E-02
RMM:   6    -0.176762287528E+03    0.80305E-04   -0.22963E-04  3641   0.503E-02    0.396E-02
RMM:   7    -0.176762273235E+03    0.14294E-04   -0.11607E-04  3209   0.441E-02    0.172E-02
RMM:   8    -0.176762272804E+03    0.43099E-06   -0.36892E-05  2270   0.191E-02
  68 F= -.17676227E+03 E0= -.17673826E+03  d E =-.720234E-01
       N       E                     dE             d eps       ncg     rms          rms(c)
DAV:   1    -0.176757508093E+03    0.47651E-02   -0.25573E+00  3264   0.290E+00    0.100E-01
RMM:   2    -0.176760342461E+03   -0.28344E-02   -0.29855E-02  3260   0.747E-01    0.115E-01
RMM:   3    -0.176761780121E+03   -0.14377E-02   -0.16713E-02  4542   0.339E-01    0.786E-02
RMM:   4    -0.176761753785E+03    0.26337E-04   -0.51551E-04  3301   0.518E-02    0.696E-02
RMM:   5    -0.176761699992E+03    0.53792E-04   -0.11093E-04  3088   0.458E-02    0.573E-02
RMM:   6    -0.176761637053E+03    0.62939E-04   -0.25232E-04  3757   0.488E-02    0.308E-02
RMM:   7    -0.176761631352E+03    0.57008E-05   -0.64127E-05  3030   0.328E-02
  69 F= -.17676163E+03 E0= -.17673762E+03  d E =-.720404E-01
       N       E                     dE             d eps       ncg     rms          rms(c)
DAV:   1    -0.176754948634E+03    0.66884E-02   -0.25685E+00  3272   0.291E+00    0.123E-01
RMM:   2    -0.176757742708E+03   -0.27941E-02   -0.30140E-02  3253   0.757E-01    0.153E-01
RMM:   3    -0.176758876061E+03   -0.11334E-02   -0.15513E-02  4440   0.346E-01    0.822E-02
RMM:   4    -0.176758869124E+03    0.69369E-05   -0.75853E-04  3439   0.603E-02    0.727E-02
RMM:   5    -0.176758816316E+03    0.52808E-04   -0.14373E-04  3225   0.515E-02    0.638E-02
RMM:   6    -0.176758740554E+03    0.75762E-04   -0.23900E-04  3494   0.538E-02    0.257E-02
RMM:   7    -0.176758738567E+03    0.19874E-05   -0.69654E-05  2997   0.320E-02
  70 F= -.17675874E+03 E0= -.17673469E+03  d E =-.721421E-01
       N       E                     dE             d eps       ncg     rms          rms(c)
DAV:   1    -0.176758007162E+03    0.73339E-03   -0.25585E+00  3336   0.293E+00    0.105E-01
RMM:   2    -0.176760803777E+03   -0.27966E-02   -0.29748E-02  3254   0.754E-01    0.117E-01
RMM:   3    -0.176762221384E+03   -0.14176E-02   -0.16596E-02  4543   0.345E-01    0.852E-02
RMM:   4    -0.176762179569E+03    0.41815E-04   -0.51663E-04  3486   0.539E-02    0.739E-02
RMM:   5    -0.176762127641E+03    0.51928E-04   -0.10659E-04  3014   0.434E-02    0.625E-02
RMM:   6    -0.176762058928E+03    0.68713E-04   -0.25789E-04  3753   0.509E-02    0.405E-02
RMM:   7    -0.176762043284E+03    0.15644E-04   -0.97363E-05  3190   0.405E-02    0.177E-02
RMM:   8    -0.176762041519E+03    0.17644E-05   -0.26928E-05  2021   0.168E-02
  71 F= -.17676204E+03 E0= -.17673802E+03  d E =-.720718E-01
       N       E                     dE             d eps       ncg     rms          rms(c)
DAV:   1    -0.176757845105E+03    0.41982E-02   -0.25562E+00  3260   0.285E+00    0.987E-02
RMM:   2    -0.176760668010E+03   -0.28229E-02   -0.29715E-02  3260   0.731E-01    0.110E-01
RMM:   3    -0.176762122822E+03   -0.14548E-02   -0.16670E-02  4524   0.332E-01    0.787E-02
RMM:   4    -0.176762096017E+03    0.26805E-04   -0.52289E-04  3277   0.514E-02    0.693E-02
RMM:   5    -0.176762036250E+03    0.59766E-04   -0.11053E-04  3090   0.452E-02    0.552E-02
RMM:   6    -0.176761982514E+03    0.53737E-04   -0.25083E-04  3721   0.486E-02    0.325E-02
RMM:   7    -0.176761974933E+03    0.75805E-05   -0.59055E-05  2872   0.304E-02
  72 F= -.17676197E+03 E0= -.17673790E+03  d E =-.722106E-01
       N       E                     dE             d eps       ncg     rms          rms(c)
DAV:   1    -0.176754975549E+03    0.70070E-02   -0.25682E+00  3260   0.284E+00    0.122E-01
RMM:   2    -0.176757755757E+03   -0.27802E-02   -0.29979E-02  3252   0.736E-01    0.151E-01
RMM:   3    -0.176758881415E+03   -0.11257E-02   -0.15348E-02  4364   0.336E-01    0.823E-02
RMM:   4    -0.176758882857E+03   -0.14424E-05   -0.82482E-04  3446   0.628E-02    0.728E-02
RMM:   5    -0.176758813433E+03    0.69425E-04   -0.15655E-04  3228   0.534E-02    0.584E-02
RMM:   6    -0.176758755709E+03    0.57724E-04   -0.24355E-04  3463   0.551E-02    0.260E-02
RMM:   7    -0.176758752012E+03    0.36972E-05   -0.62143E-05  2829   0.300E-02
  73 F= -.17675875E+03 E0= -.17673476E+03  d E =-.719821E-01
       N       E                     dE             d eps       ncg     rms          rms(c)
DAV:   1    -0.176758574824E+03    0.18089E-03   -0.25585E+00  3312   0.293E+00    0.106E-01
RMM:   2    -0.176761365735E+03   -0.27909E-02   -0.29652E-02  3259   0.757E-01    0.123E-01
RMM:   3    -0.176762749612E+03   -0.13839E-02   -0.16372E-02  4545   0.342E-01    0.851E-02
RMM:   4    -0.176762707119E+03    0.42493E-04   -0.51971E-04  3573   0.534E-02    0.740E-02
RMM:   5    -0.176762644585E+03    0.62534E-04   -0.11681E-04  3090   0.454E-02    0.600E-02
RMM:   6    -0.176762580565E+03    0.64020E-04   -0.27445E-04  3765   0.518E-02    0.353E-02
RMM:   7    -0.176762569153E+03    0.11412E-04   -0.76658E-05  3065   0.341E-02    0.181E-02
RMM:   8    -0.176762566747E+03    0.24065E-05   -0.22566E-05  1938   0.164E-02
  74 F= -.17676257E+03 E0= -.17673858E+03  d E =-.719578E-01
       N       E                     dE             d eps       ncg     rms          rms(c)
DAV:   1    -0.176758013022E+03    0.45561E-02   -0.25564E+00  3264   0.290E+00    0.993E-02
RMM:   2    -0.176760837966E+03   -0.28249E-02   -0.29742E-02  3264   0.744E-01    0.113E-01
RMM:   3    -0.176762279482E+03   -0.14415E-02   -0.16637E-02  4530   0.337E-01    0.792E-02
RMM:   4    -0.176762251611E+03    0.27872E-04   -0.52310E-04  3313   0.521E-02    0.698E-02
RMM:   5    -0.176762197734E+03    0.53877E-04   -0.10843E-04  3121   0.452E-02    0.577E-02
RMM:   6    -0.176762134487E+03    0.63247E-04   -0.25113E-04  3767   0.485E-02    0.323E-02
RMM:   7    -0.176762127970E+03    0.65170E-05   -0.67962E-05  3092   0.339E-02
  75 F= -.17676213E+03 E0= -.17673812E+03  d E =-.720267E-01
       N       E                     dE             d eps       ncg     rms          rms(c)
DAV:   1    -0.176756186055E+03    0.59484E-02   -0.25674E+00  3264   0.292E+00    0.125E-01
RMM:   2    -0.176758981717E+03   -0.27957E-02   -0.30141E-02  3249   0.761E-01    0.156E-01
RMM:   3    -0.176760073407E+03   -0.10917E-02   -0.15301E-02  4435   0.348E-01    0.823E-02
RMM:   4    -0.176760074152E+03   -0.74533E-06   -0.83455E-04  3442   0.620E-02    0.732E-02
RMM:   5    -0.176760024608E+03    0.49544E-04   -0.13676E-04  3229   0.504E-02    0.651E-02
RMM:   6    -0.176759947102E+03    0.77506E-04   -0.23054E-04  3492   0.523E-02    0.312E-02
RMM:   7    -0.176759943174E+03    0.39277E-05   -0.84943E-05  3162   0.365E-02
  76 F= -.17675994E+03 E0= -.17673593E+03  d E =-.720451E-01
       N       E                     dE             d eps       ncg     rms          rms(c)
DAV:   1    -0.176758006931E+03    0.19402E-02   -0.25580E+00  3344   0.294E+00    0.106E-01
RMM:   2    -0.176760805604E+03   -0.27987E-02   -0.29799E-02  3247   0.757E-01    0.122E-01
RMM:   3    -0.176762210149E+03   -0.14045E-02   -0.16613E-02  4545   0.347E-01    0.862E-02
RMM:   4    -0.176762166781E+03    0.43369E-04   -0.52746E-04  3520   0.542E-02    0.750E-02
RMM:   5    -0.176762122188E+03    0.44592E-04   -0.10876E-04  3071   0.441E-02    0.666E-02
RMM:   6    -0.176762040358E+03    0.81830E-04   -0.23786E-04  3627   0.512E-02    0.404E-02
RMM:   7    -0.176762024885E+03    0.15473E-04   -0.11748E-04  3204   0.444E-02    0.168E-02
RMM:   8    -0.176762024789E+03    0.95686E-07   -0.38203E-05  2311   0.190E-02
  77 F= -.17676202E+03 E0= -.17673801E+03  d E =-.720570E-01
       N       E                     dE             d eps       ncg     rms          rms(c)
DAV:   1    -0.176758396850E+03    0.36280E-02   -0.25561E+00  3260   0.286E+00    0.983E-02
RMM:   2    -0.176761206605E+03   -0.28098E-02   -0.29566E-02  3258   0.736E-01    0.110E-01
RMM:   3    -0.176762642646E+03   -0.14360E-02   -0.16463E-02  4540   0.331E-01    0.794E-02
RMM:   4    -0.176762612946E+03    0.29700E-04   -0.50282E-04  3286   0.508E-02    0.697E-02
RMM:   5    -0.176762555754E+03    0.57192E-04   -0.11183E-04  3095   0.455E-02    0.571E-02
RMM:   6    -0.176762496505E+03    0.59249E-04   -0.26601E-04  3772   0.501E-02    0.319E-02
RMM:   7    -0.176762489695E+03    0.68103E-05   -0.61077E-05  2967   0.321E-02
  78 F= -.17676249E+03 E0= -.17673844E+03  d E =-.721585E-01
       N       E                     dE             d eps       ncg     rms          rms(c)
DAV:   1    -0.176755736046E+03    0.67605E-02   -0.25660E+00  3260   0.286E+00    0.125E-01
RMM:   2    -0.176758568850E+03   -0.28328E-02   -0.30400E-02  3258   0.748E-01    0.163E-01
RMM:   3    -0.176759634997E+03   -0.10661E-02   -0.15449E-02  4338   0.344E-01    0.818E-02
RMM:   4    -0.176759650379E+03   -0.15382E-04   -0.96486E-04  3531   0.674E-02    0.734E-02
RMM:   5    -0.176759597369E+03    0.53011E-04   -0.13936E-04  3218   0.496E-02    0.646E-02
RMM:   6    -0.176759521684E+03    0.75685E-04   -0.25945E-04  3567   0.549E-02    0.301E-02
RMM:   7    -0.176759517731E+03    0.39525E-05   -0.72959E-05  3030   0.337E-02
  79 F= -.17675952E+03 E0= -.17673545E+03  d E =-.721885E-01
       N       E                     dE             d eps       ncg     rms          rms(c)
DAV:   1    -0.176758675393E+03    0.84629E-03   -0.25578E+00  3348   0.292E+00    0.105E-01
RMM:   2    -0.176761459822E+03   -0.27844E-02   -0.29675E-02  3251   0.753E-01    0.118E-01
RMM:   3    -0.176762872764E+03   -0.14129E-02   -0.16534E-02  4544   0.344E-01    0.866E-02
RMM:   4    -0.176762829271E+03    0.43493E-04   -0.53593E-04  3667   0.546E-02    0.750E-02
RMM:   5    -0.176762789081E+03    0.40190E-04   -0.97526E-05  2973   0.408E-02    0.674E-02
RMM:   6    -0.176762704420E+03    0.84661E-04   -0.23694E-04  3692   0.505E-02    0.406E-02
RMM:   7    -0.176762687913E+03    0.16507E-04   -0.11624E-04  3210   0.444E-02    0.168E-02
RMM:   8    -0.176762687679E+03    0.23344E-06   -0.36140E-05  2253   0.185E-02
  80 F= -.17676269E+03 E0= -.17673866E+03  d E =-.720812E-01
       N       E                     dE             d eps       ncg     rms          rms(c)
DAV:   1    -0.176757638986E+03    0.50489E-02   -0.25566E+00  3284   0.289E+00    0.989E-02
RMM:   2    -0.176760470744E+03   -0.28318E-02   -0.29784E-02  3256   0.743E-01    0.115E-01
RMM:   3    -0.176761914078E+03   -0.14433E-02   -0.16723E-02  4528   0.338E-01    0.798E-02
RMM:   4    -0.176761887587E+03    0.26491E-04   -0.52967E-04  3322   0.524E-02    0.707E-02
RMM:   5    -0.176761834530E+03    0.53056E-04   -0.11539E-04  3111   0.465E-02    0.600E-02
RMM:   6    -0.176761766088E+03    0.68442E-04   -0.26521E-04  3749   0.506E-02    0.312E-02
RMM:   7    -0.176761760925E+03    0.51633E-05   -0.66739E-05  3061   0.334E-02
  81 F= -.17676176E+03 E0= -.17673777E+03  d E =-.719743E-01
       N       E                     dE             d eps       ncg     rms          rms(c)
DAV:   1    -0.176756407316E+03    0.53588E-02   -0.25661E+00  3264   0.291E+00    0.126E-01
RMM:   2    -0.176759243600E+03   -0.28363E-02   -0.30530E-02  3247   0.762E-01    0.164E-01
RMM:   3    -0.176760309943E+03   -0.10663E-02   -0.15451E-02  4398   0.351E-01    0.818E-02
RMM:   4    -0.176760323773E+03   -0.13830E-04   -0.96598E-04  3517   0.665E-02    0.736E-02
RMM:   5    -0.176760279321E+03    0.44451E-04   -0.12435E-04  3176   0.470E-02    0.666E-02
RMM:   6    -0.176760196328E+03    0.82993E-04   -0.24452E-04  3564   0.525E-02    0.327E-02
RMM:   7    -0.176760192208E+03    0.41197E-05   -0.87479E-05  3185   0.374E-02
  82 F= -.17676019E+03 E0= -.17673617E+03  d E =-.720530E-01
       N       E                     dE             d eps       ncg     rms          rms(c)
DAV:   1    -0.176758282402E+03    0.19139E-02   -0.25574E+00  3340   0.294E+00    0.104E-01
RMM:   2    -0.176761078060E+03   -0.27957E-02   -0.29719E-02  3247   0.756E-01    0.117E-01
RMM:   3    -0.176762505783E+03   -0.14277E-02   -0.16658E-02  4555   0.347E-01    0.858E-02
RMM:   4    -0.176762462344E+03    0.43439E-04   -0.51172E-04  3463   0.537E-02    0.747E-02
RMM:   5    -0.176762417879E+03    0.44465E-04   -0.10663E-04  3056   0.438E-02    0.660E-02
RMM:   6    -0.176762337716E+03    0.80163E-04   -0.23799E-04  3667   0.506E-02    0.405E-02
RMM:   7    -0.176762322285E+03    0.15431E-04   -0.11517E-04  3208   0.439E-02    0.174E-02
RMM:   8    -0.176762321680E+03    0.60476E-06   -0.36011E-05  2258   0.189E-02
  83 F= -.17676232E+03 E0= -.17673826E+03  d E =-.721875E-01
       N       E                     dE             d eps       ncg     rms          rms(c)
DAV:   1    -0.176758756789E+03    0.35655E-02   -0.25565E+00  3272   0.290E+00    0.101E-01
RMM:   2    -0.176761590958E+03   -0.28342E-02   -0.29872E-02  3261   0.747E-01    0.117E-01
RMM:   3    -0.176763021775E+03   -0.14308E-02   -0.16677E-02  4528   0.339E-01    0.792E-02
RMM:   4    -0.176762995191E+03    0.26584E-04   -0.52604E-04  3309   0.523E-02    0.701E-02
RMM:   5    -0.176762941446E+03    0.53746E-04   -0.11133E-04  3094   0.456E-02    0.585E-02
RMM:   6    -0.176762876671E+03    0.64774E-04   -0.25702E-04  3776   0.494E-02    0.319E-02
RMM:   7    -0.176762870366E+03    0.63054E-05   -0.66368E-05  3046   0.333E-02
  84 F= -.17676287E+03 E0= -.17673887E+03  d E =-.720001E-01
       N       E                     dE             d eps       ncg     rms          rms(c)
DAV:   1    -0.176755197492E+03    0.76792E-02   -0.25667E+00  3272   0.291E+00    0.124E-01
RMM:   2    -0.176758001197E+03   -0.28037E-02   -0.30226E-02  3249   0.758E-01    0.156E-01
RMM:   3    -0.176759120435E+03   -0.11192E-02   -0.15514E-02  4422   0.348E-01    0.822E-02
RMM:   4    -0.176759122238E+03   -0.18033E-05   -0.83577E-04  3468   0.629E-02    0.731E-02
RMM:   5    -0.176759073560E+03    0.48677E-04   -0.13700E-04  3228   0.501E-02    0.652E-02
RMM:   6    -0.176758995334E+03    0.78227E-04   -0.23593E-04  3498   0.528E-02    0.298E-02
RMM:   7    -0.176758992279E+03    0.30542E-05   -0.80933E-05  3149   0.354E-02
  85 F= -.17675899E+03 E0= -.17673503E+03  d E =-.718852E-01
       N       E                     dE             d eps       ncg     rms          rms(c)
DAV:   1    -0.176758159575E+03    0.83576E-03   -0.25587E+00  3360   0.294E+00    0.106E-01
RMM:   2    -0.176760929867E+03   -0.27703E-02   -0.29570E-02  3256   0.758E-01    0.119E-01
RMM:   3    -0.176762334518E+03   -0.14047E-02   -0.16420E-02  4556   0.343E-01    0.866E-02
RMM:   4    -0.176762285799E+03    0.48719E-04   -0.51604E-04  3754   0.536E-02    0.748E-02
RMM:   5    -0.176762238122E+03    0.47678E-04   -0.99626E-05  3019   0.412E-02    0.653E-02
RMM:   6    -0.176762159367E+03    0.78755E-04   -0.26407E-04  3821   0.518E-02    0.405E-02
RMM:   7    -0.176762143718E+03    0.15650E-04   -0.10596E-04  3202   0.425E-02    0.177E-02
RMM:   8    -0.176762142501E+03    0.12163E-05   -0.31405E-05  2168   0.179E-02
  86 F= -.17676214E+03 E0= -.17673812E+03  d E =-.720722E-01
       N       E                     dE             d eps       ncg     rms          rms(c)
DAV:   1    -0.176757745951E+03    0.43978E-02   -0.25572E+00  3264   0.289E+00    0.100E-01
RMM:   2    -0.176760573326E+03   -0.28274E-02   -0.29760E-02  3261   0.742E-01    0.118E-01
RMM:   3    -0.176761993321E+03   -0.14200E-02   -0.16583E-02  4521   0.337E-01    0.801E-02
RMM:   4    -0.176761966236E+03    0.27086E-04   -0.54428E-04  3323   0.530E-02    0.706E-02
RMM:   5    -0.176761911255E+03    0.54981E-04   -0.12313E-04  3143   0.478E-02    0.600E-02
RMM:   6    -0.176761841577E+03    0.69678E-04   -0.27305E-04  3743   0.518E-02    0.271E-02
RMM:   7    -0.176761837184E+03    0.43923E-05   -0.57743E-05  2788   0.307E-02
  87 F= -.17676184E+03 E0= -.17673781E+03  d E =-.720900E-01
       N       E                     dE             d eps       ncg     rms          rms(c)
DAV:   1    -0.176756196874E+03    0.56447E-02   -0.25663E+00  3272   0.290E+00    0.124E-01
RMM:   2    -0.176759000829E+03   -0.28040E-02   -0.30188E-02  3249   0.757E-01    0.160E-01
RMM:   3    -0.176760083850E+03   -0.10830E-02   -0.15342E-02  4414   0.346E-01    0.821E-02
RMM:   4    -0.176760085562E+03   -0.17123E-05   -0.86572E-04  3533   0.638E-02    0.728E-02
RMM:   5    -0.176760041379E+03    0.44183E-04   -0.13109E-04  3204   0.485E-02    0.659E-02
RMM:   6    -0.176759957569E+03    0.83810E-04   -0.24499E-04  3575   0.524E-02    0.274E-02
RMM:   7    -0.176759955257E+03    0.23126E-05   -0.72220E-05  3039   0.334E-02
  88 F= -.17675996E+03 E0= -.17673588E+03  d E =-.722317E-01
       N       E                     dE             d eps       ncg     rms          rms(c)
DAV:   1    -0.176757764038E+03    0.21935E-02   -0.25573E+00  3340   0.294E+00    0.105E-01
RMM:   2    -0.176760567434E+03   -0.28034E-02   -0.29780E-02  3252   0.757E-01    0.121E-01
RMM:   3    -0.176761978652E+03   -0.14112E-02   -0.16623E-02  4544   0.347E-01    0.858E-02
RMM:   4    -0.176761937644E+03    0.41008E-04   -0.53857E-04  3753   0.547E-02    0.750E-02
RMM:   5    -0.176761896813E+03    0.40831E-04   -0.96418E-05  2942   0.405E-02    0.669E-02
RMM:   6    -0.176761810783E+03    0.86030E-04   -0.23710E-04  3712   0.508E-02    0.397E-02
RMM:   7    -0.176761796586E+03    0.14197E-04   -0.11494E-04  3210   0.438E-02    0.185E-02
RMM:   8    -0.176761796160E+03    0.42601E-06   -0.38980E-05  2325   0.194E-02
  89 F= -.17676180E+03 E0= -.17673779E+03  d E =-.720236E-01
       N       E                     dE             d eps       ncg     rms          rms(c)
DAV:   1    -0.176757949694E+03    0.38469E-02   -0.25575E+00  3260   0.290E+00    0.100E-01
RMM:   2    -0.176760781010E+03   -0.28313E-02   -0.29830E-02  3260   0.748E-01    0.117E-01
RMM:   3    -0.176762202147E+03   -0.14211E-02   -0.16577E-02  4520   0.338E-01    0.800E-02
RMM:   4    -0.176762175274E+03    0.26873E-04   -0.53214E-04  3322   0.529E-02    0.707E-02
RMM:   5    -0.176762122610E+03    0.52664E-04   -0.12209E-04  3133   0.478E-02    0.608E-02
RMM:   6    -0.176762052716E+03    0.69894E-04   -0.26522E-04  3725   0.515E-02    0.304E-02
RMM:   7    -0.176762047858E+03    0.48586E-05   -0.67384E-05  3079   0.334E-02
  90 F= -.17676205E+03 E0= -.17673805E+03  d E =-.719966E-01
       N       E                     dE             d eps       ncg     rms          rms(c)
DAV:   1    -0.176756036705E+03    0.60160E-02   -0.25664E+00  3268   0.291E+00    0.124E-01
RMM:   2    -0.176758848219E+03   -0.28115E-02   -0.30270E-02  3252   0.759E-01    0.158E-01
RMM:   3    -0.176759956663E+03   -0.11084E-02   -0.15533E-02  4417   0.348E-01    0.821E-02
RMM:   4    -0.176759957915E+03   -0.12511E-05   -0.83199E-04  3504   0.630E-02    0.733E-02
RMM:   5    -0.176759911080E+03    0.46834E-04   -0.13265E-04  3220   0.490E-02    0.662E-02
RMM:   6    -0.176759831646E+03    0.79434E-04   -0.23736E-04  3529   0.528E-02    0.317E-02
RMM:   7    -0.176759827613E+03    0.40329E-05   -0.84589E-05  3163   0.366E-02
  91 F= -.17675983E+03 E0= -.17673581E+03  d E =-.720604E-01
       N       E                     dE             d eps       ncg     rms          rms(c)
DAV:   1    -0.176757368502E+03    0.24631E-02   -0.25574E+00  3356   0.294E+00    0.106E-01
RMM:   2    -0.176760181446E+03   -0.28129E-02   -0.29891E-02  3250   0.759E-01    0.123E-01
RMM:   3    -0.176761595479E+03   -0.14140E-02   -0.16727E-02  4549   0.349E-01    0.861E-02
RMM:   4    -0.176761553969E+03    0.41510E-04   -0.52642E-04  3599   0.544E-02    0.753E-02
RMM:   5    -0.176761514357E+03    0.39612E-04   -0.10593E-04  3051   0.434E-02    0.679E-02
RMM:   6    -0.176761425430E+03    0.88927E-04   -0.23213E-04  3645   0.510E-02    0.382E-02
RMM:   7    -0.176761412691E+03    0.12738E-04   -0.11699E-04  3214   0.441E-02    0.179E-02
RMM:   8    -0.176761412497E+03    0.19442E-06   -0.40303E-05  2367   0.198E-02
  92 F= -.17676141E+03 E0= -.17673740E+03  d E =-.720375E-01
       N       E                     dE             d eps       ncg     rms          rms(c)
DAV:   1    -0.176757664469E+03    0.37482E-02   -0.25564E+00  3276   0.289E+00    0.987E-02
RMM:   2    -0.176760479777E+03   -0.28153E-02   -0.29630E-02  3261   0.744E-01    0.112E-01
RMM:   3    -0.176761911300E+03   -0.14315E-02   -0.16496E-02  4522   0.335E-01    0.800E-02
RMM:   4    -0.176761882445E+03    0.28855E-04   -0.52131E-04  3348   0.524E-02    0.702E-02
RMM:   5    -0.176761826621E+03    0.55823E-04   -0.11633E-04  3108   0.464E-02    0.587E-02
RMM:   6    -0.176761762660E+03    0.63961E-04   -0.27290E-04  3791   0.511E-02    0.303E-02
RMM:   7    -0.176761757087E+03    0.55729E-05   -0.62435E-05  2990   0.324E-02
  93 F= -.17676176E+03 E0= -.17673776E+03  d E =-.719787E-01
       N       E                     dE             d eps       ncg     rms          rms(c)
DAV:   1    -0.176756410786E+03    0.53519E-02   -0.25662E+00  3264   0.291E+00    0.126E-01
RMM:   2    -0.176759244179E+03   -0.28334E-02   -0.30474E-02  3246   0.761E-01    0.163E-01
RMM:   3    -0.176760314859E+03   -0.10707E-02   -0.15438E-02  4405   0.350E-01    0.817E-02
RMM:   4    -0.176760326387E+03   -0.11528E-04   -0.94149E-04  3521   0.659E-02    0.733E-02
RMM:   5    -0.176760280176E+03    0.46211E-04   -0.12665E-04  3187   0.475E-02    0.658E-02
RMM:   6    -0.176760198653E+03    0.81523E-04   -0.24355E-04  3549   0.528E-02    0.316E-02
RMM:   7    -0.176760195245E+03    0.34080E-05   -0.84780E-05  3181   0.366E-02
  94 F= -.17676020E+03 E0= -.17673618E+03  d E =-.720537E-01
       N       E                     dE             d eps       ncg     rms          rms(c)
DAV:   1    -0.176757968454E+03    0.22302E-02   -0.25568E+00  3364   0.293E+00    0.105E-01
RMM:   2    -0.176760778910E+03   -0.28105E-02   -0.29850E-02  3250   0.755E-01    0.123E-01
RMM:   3    -0.176762186500E+03   -0.14076E-02   -0.16636E-02  4540   0.346E-01    0.864E-02
RMM:   4    -0.176762146176E+03    0.40324E-04   -0.54995E-04  3740   0.551E-02    0.755E-02
RMM:   5    -0.176762107255E+03    0.38922E-04   -0.98536E-05  3002   0.409E-02    0.683E-02
RMM:   6    -0.176762016439E+03    0.90816E-04   -0.23433E-04  3689   0.506E-02    0.388E-02
RMM:   7    -0.176762002397E+03    0.14042E-04   -0.11568E-04  3213   0.439E-02    0.179E-02
[...]
       N       E                     dE             d eps       ncg     rms          rms(c)
DAV:   1    -0.176760576544E+03    0.18839E-02   -0.25621E+00  3260   0.283E+00    0.101E-01
RMM:   2    -0.176763373156E+03   -0.27966E-02   -0.29701E-02  3255   0.728E-01    0.102E-01
RMM:   3    -0.176764889779E+03   -0.15166E-02   -0.16950E-02  4490   0.329E-01    0.864E-02
RMM:   4    -0.176764862545E+03    0.27234E-04   -0.57370E-04  3483   0.536E-02    0.756E-02
RMM:   5    -0.176764801063E+03    0.61482E-04   -0.10731E-04  3176   0.425E-02    0.629E-02
RMM:   6    -0.176764739505E+03    0.61558E-04   -0.33441E-04  3867   0.561E-02    0.337E-02
RMM:   7    -0.176764732399E+03    0.71060E-05   -0.58237E-05  2895   0.315E-02
 130 F= -.17676473E+03 E0= -.17674072E+03  d E =-.720449E-01
       N       E                     dE             d eps       ncg     rms          rms(c)
DAV:   1    -0.176758132169E+03    0.66073E-02   -0.25545E+00  3292   0.291E+00    0.107E-01
RMM:   2    -0.176761030498E+03   -0.28983E-02   -0.30926E-02  3268   0.761E-01    0.116E-01
RMM:   3    -0.176762622794E+03   -0.15923E-02   -0.18208E-02  4544   0.353E-01    0.886E-02
RMM:   4    -0.176762586576E+03    0.36218E-04   -0.59021E-04  3658   0.552E-02    0.785E-02
RMM:   5    -0.176762544001E+03    0.42575E-04   -0.87407E-05  2825   0.370E-02    0.699E-02
RMM:   6    -0.176762452685E+03    0.91316E-04   -0.30425E-04  3957   0.528E-02    0.357E-02
RMM:   7    -0.176762446505E+03    0.61801E-05   -0.89308E-05  3194   0.391E-02
 131 F= -.17676245E+03 E0= -.17673843E+03  d E =-.720404E-01
       N       E                     dE             d eps       ncg     rms          rms(c)
DAV:   1    -0.176758139124E+03    0.43136E-02   -0.25596E+00  3256   0.288E+00    0.101E-01
RMM:   2    -0.176760950256E+03   -0.28111E-02   -0.29750E-02  3256   0.741E-01    0.100E-01
RMM:   3    -0.176762478214E+03   -0.15280E-02   -0.16992E-02  4519   0.334E-01    0.870E-02
RMM:   4    -0.176762441950E+03    0.36264E-04   -0.55868E-04  3556   0.535E-02    0.755E-02
RMM:   5    -0.176762375589E+03    0.66360E-04   -0.10492E-04  3190   0.413E-02    0.622E-02
RMM:   6    -0.176762313861E+03    0.61728E-04   -0.32770E-04  3918   0.557E-02    0.349E-02
RMM:   7    -0.176762304433E+03    0.94287E-05   -0.60730E-05  2980   0.324E-02
 132 F= -.17676230E+03 E0= -.17673830E+03  d E =-.720164E-01
       N       E                     dE             d eps       ncg     rms          rms(c)
DAV:   1    -0.176759819330E+03    0.24945E-02   -0.25601E+00  3256   0.289E+00    0.101E-01
RMM:   2    -0.176762616019E+03   -0.27967E-02   -0.29702E-02  3248   0.746E-01    0.102E-01
RMM:   3    -0.176764150314E+03   -0.15343E-02   -0.17108E-02  4535   0.337E-01    0.868E-02
RMM:   4    -0.176764117873E+03    0.32441E-04   -0.53573E-04  3526   0.526E-02    0.757E-02
RMM:   5    -0.176764053983E+03    0.63890E-04   -0.10794E-04  3181   0.426E-02    0.618E-02
RMM:   6    -0.176763995445E+03    0.58538E-04   -0.32336E-04  3875   0.558E-02    0.332E-02
RMM:   7    -0.176763987922E+03    0.75230E-05   -0.57968E-05  2885   0.313E-02
 133 F= -.17676399E+03 E0= -.17673998E+03  d E =-.720384E-01
       N       E                     dE             d eps       ncg     rms          rms(c)
DAV:   1    -0.176757620427E+03    0.63750E-02   -0.25522E+00  3328   0.292E+00    0.106E-01
RMM:   2    -0.176760527883E+03   -0.29075E-02   -0.30972E-02  3271   0.765E-01    0.118E-01
RMM:   3    -0.176762112824E+03   -0.15849E-02   -0.18106E-02  4549   0.350E-01    0.877E-02
RMM:   4    -0.176762076181E+03    0.36643E-04   -0.57763E-04  3629   0.546E-02    0.778E-02
RMM:   5    -0.176762015260E+03    0.60921E-04   -0.91912E-05  2982   0.382E-02    0.639E-02
RMM:   6    -0.176761950216E+03    0.65044E-04   -0.33412E-04  4042   0.552E-02    0.392E-02
RMM:   7    -0.176761939526E+03    0.10690E-04   -0.79051E-05  3145   0.370E-02    0.229E-02
RMM:   8    -0.176761934187E+03    0.53388E-05   -0.20521E-05  1912   0.172E-02
 134 F= -.17676193E+03 E0= -.17673792E+03  d E =-.720378E-01
       N       E                     dE             d eps       ncg     rms          rms(c)
DAV:   1    -0.176758275419E+03    0.36641E-02   -0.25599E+00  3264   0.285E+00    0.101E-01
RMM:   2    -0.176761077127E+03   -0.28017E-02   -0.29684E-02  3261   0.731E-01    0.981E-02
RMM:   3    -0.176762599203E+03   -0.15221E-02   -0.16875E-02  4534   0.328E-01    0.858E-02
RMM:   4    -0.176762559008E+03    0.40195E-04   -0.53200E-04  3544   0.517E-02    0.737E-02
RMM:   5    -0.176762470762E+03    0.88246E-04   -0.11057E-04  3218   0.417E-02    0.509E-02
RMM:   6    -0.176762436436E+03    0.34327E-04   -0.32770E-04  3882   0.565E-02    0.314E-02
RMM:   7    -0.176762425787E+03    0.10649E-04   -0.43743E-05  2556   0.272E-02    0.173E-02
RMM:   8    -0.176762422904E+03    0.28827E-05   -0.13674E-05  1850   0.127E-02
 135 F= -.17676242E+03 E0= -.17673839E+03  d E =-.721096E-01
       N       E                     dE             d eps       ncg     rms          rms(c)
DAV:   1    -0.176759163533E+03    0.32623E-02   -0.25602E+00  3272   0.284E+00    0.100E-01
RMM:   2    -0.176761952488E+03   -0.27890E-02   -0.29599E-02  3252   0.730E-01    0.974E-02
RMM:   3    -0.176763486358E+03   -0.15339E-02   -0.16947E-02  4480   0.328E-01    0.857E-02
RMM:   4    -0.176763456669E+03    0.29689E-04   -0.57017E-04  3519   0.538E-02    0.737E-02
RMM:   5    -0.176763374032E+03    0.82637E-04   -0.12418E-04  3244   0.446E-02    0.521E-02
RMM:   6    -0.176763340775E+03    0.33258E-04   -0.30906E-04  3762   0.564E-02    0.301E-02
RMM:   7    -0.176763333037E+03    0.77374E-05   -0.44166E-05  2514   0.263E-02
 136 F= -.17676333E+03 E0= -.17673932E+03  d E =-.720334E-01
       N       E                     dE             d eps       ncg     rms          rms(c)
DAV:   1    -0.176758980777E+03    0.43600E-02   -0.25529E+00  3320   0.291E+00    0.109E-01
RMM:   2    -0.176761873644E+03   -0.28929E-02   -0.30925E-02  3269   0.761E-01    0.117E-01
RMM:   3    -0.176763461895E+03   -0.15883E-02   -0.18205E-02  4537   0.353E-01    0.886E-02
RMM:   4    -0.176763424480E+03    0.37415E-04   -0.59284E-04  3669   0.555E-02    0.780E-02
RMM:   5    -0.176763368830E+03    0.55649E-04   -0.95239E-05  3036   0.389E-02    0.661E-02
RMM:   6    -0.176763297409E+03    0.71422E-04   -0.31883E-04  3966   0.546E-02    0.382E-02
RMM:   7    -0.176763287425E+03    0.99841E-05   -0.79422E-05  3157   0.366E-02
 137 F= -.17676329E+03 E0= -.17673927E+03  d E =-.720523E-01
       N       E                     dE             d eps       ncg     rms          rms(c)
DAV:   1    -0.176758185350E+03    0.51121E-02   -0.25593E+00  3280   0.288E+00    0.103E-01
RMM:   2    -0.176760998213E+03   -0.28129E-02   -0.29866E-02  3261   0.740E-01    0.105E-01
RMM:   3    -0.176762519707E+03   -0.15215E-02   -0.17065E-02  4516   0.335E-01    0.875E-02
RMM:   4    -0.176762479862E+03    0.39845E-04   -0.55408E-04  3593   0.530E-02    0.756E-02
RMM:   5    -0.176762412520E+03    0.67342E-04   -0.10364E-04  3180   0.411E-02    0.622E-02
RMM:   6    -0.176762351398E+03    0.61123E-04   -0.31786E-04  3891   0.548E-02    0.352E-02
RMM:   7    -0.176762341513E+03    0.98851E-05   -0.60614E-05  2980   0.322E-02
 138 F= -.17676234E+03 E0= -.17673839E+03  d E =-.718591E-01
       N       E                     dE             d eps       ncg     rms          rms(c)
DAV:   1    -0.176760054823E+03    0.22966E-02   -0.25604E+00  3256   0.289E+00    0.101E-01
RMM:   2    -0.176762836136E+03   -0.27813E-02   -0.29619E-02  3251   0.744E-01    0.991E-02
RMM:   3    -0.176764361795E+03   -0.15257E-02   -0.16930E-02  4537   0.335E-01    0.868E-02
RMM:   4    -0.176764325659E+03    0.36136E-04   -0.52981E-04  3524   0.519E-02    0.752E-02
RMM:   5    -0.176764249245E+03    0.76414E-04   -0.11266E-04  3212   0.431E-02    0.570E-02
RMM:   6    -0.176764205329E+03    0.43915E-04   -0.31646E-04  3853   0.559E-02    0.337E-02
RMM:   7    -0.176764196072E+03    0.92577E-05   -0.56793E-05  2860   0.310E-02
 139 F= -.17676420E+03 E0= -.17674018E+03  d E =-.720485E-01
       N       E                     dE             d eps       ncg     rms          rms(c)
DAV:   1    -0.176758586237E+03    0.56191E-02   -0.25522E+00  3308   0.293E+00    0.107E-01
RMM:   2    -0.176761481181E+03   -0.28949E-02   -0.30903E-02  3272   0.763E-01    0.114E-01
RMM:   3    -0.176763085137E+03   -0.16040E-02   -0.18238E-02  4545   0.354E-01    0.884E-02
RMM:   4    -0.176763048788E+03    0.36349E-04   -0.59172E-04  3683   0.553E-02    0.779E-02
RMM:   5    -0.176762995957E+03    0.52831E-04   -0.87773E-05  2822   0.368E-02    0.665E-02
RMM:   6    -0.176762919550E+03    0.76407E-04   -0.30659E-04  3993   0.533E-02    0.387E-02
RMM:   7    -0.176762909989E+03    0.95608E-05   -0.88679E-05  3179   0.390E-02
 140 F= -.17676291E+03 E0= -.17673892E+03  d E =-.719713E-01
       N       E                     dE             d eps       ncg     rms          rms(c)
DAV:   1    -0.176758035192E+03    0.48844E-02   -0.25596E+00  3256   0.288E+00    0.103E-01
RMM:   2    -0.176760855838E+03   -0.28206E-02   -0.29929E-02  3261   0.739E-01    0.106E-01
RMM:   3    -0.176762381025E+03   -0.15252E-02   -0.17126E-02  4526   0.335E-01    0.875E-02
RMM:   4    -0.176762342384E+03    0.38642E-04   -0.55251E-04  3589   0.533E-02    0.761E-02
RMM:   5    -0.176762273341E+03    0.69043E-04   -0.10238E-04  3155   0.409E-02    0.619E-02
RMM:   6    -0.176762212521E+03    0.60820E-04   -0.33960E-04  3970   0.564E-02    0.351E-02
RMM:   7    -0.176762202426E+03    0.10096E-04   -0.58209E-05  2928   0.316E-02    0.212E-02
RMM:   8    -0.176762197577E+03    0.48492E-05   -0.16035E-05  1863   0.151E-02
 141 F= -.17676220E+03 E0= -.17673817E+03  d E =-.720856E-01
       N       E                     dE             d eps       ncg     rms          rms(c)
DAV:   1    -0.176759953338E+03    0.22491E-02   -0.25592E+00  3252   0.288E+00    0.997E-02
RMM:   2    -0.176762743633E+03   -0.27903E-02   -0.29592E-02  3255   0.739E-01    0.977E-02
RMM:   3    -0.176764274676E+03   -0.15310E-02   -0.16903E-02  4532   0.332E-01    0.856E-02
RMM:   4    -0.176764243102E+03    0.31575E-04   -0.54628E-04  3519   0.527E-02    0.740E-02
RMM:   5    -0.176764172398E+03    0.70703E-04   -0.11205E-04  3218   0.431E-02    0.576E-02
RMM:   6    -0.176764126929E+03    0.45469E-04   -0.32200E-04  3866   0.559E-02    0.325E-02
RMM:   7    -0.176764118300E+03    0.86295E-05   -0.48915E-05  2623   0.278E-02
 142 F= -.17676412E+03 E0= -.17674007E+03  d E =-.721420E-01
       N       E                     dE             d eps       ncg     rms          rms(c)
DAV:   1    -0.176757126469E+03    0.70005E-02   -0.25520E+00  3316   0.293E+00    0.106E-01
RMM:   2    -0.176760015678E+03   -0.28892E-02   -0.30797E-02  3263   0.762E-01    0.112E-01
RMM:   3    -0.176761634712E+03   -0.16190E-02   -0.18303E-02  4543   0.354E-01    0.881E-02
RMM:   4    -0.176761599677E+03    0.35035E-04   -0.59315E-04  3657   0.558E-02    0.777E-02
RMM:   5    -0.176761532814E+03    0.66862E-04   -0.94794E-05  3054   0.391E-02    0.621E-02
RMM:   6    -0.176761473960E+03    0.58854E-04   -0.35062E-04  4066   0.561E-02    0.386E-02
RMM:   7    -0.176761462808E+03    0.11152E-04   -0.70568E-05  3069   0.347E-02    0.227E-02
RMM:   8    -0.176761457512E+03    0.52965E-05   -0.18460E-05  1888   0.163E-02
 143 F= -.17676146E+03 E0= -.17673746E+03  d E =-.720068E-01
       N       E                     dE             d eps       ncg     rms          rms(c)
DAV:   1    -0.176758133534E+03    0.33293E-02   -0.25605E+00  3264   0.289E+00    0.101E-01
RMM:   2    -0.176760949031E+03   -0.28155E-02   -0.29810E-02  3260   0.743E-01    0.102E-01
RMM:   3    -0.176762469961E+03   -0.15209E-02   -0.16946E-02  4529   0.333E-01    0.860E-02
RMM:   4    -0.176762431238E+03    0.38722E-04   -0.54086E-04  3559   0.529E-02    0.741E-02
RMM:   5    -0.176762354297E+03    0.76941E-04   -0.11786E-04  3243   0.441E-02    0.571E-02
RMM:   6    -0.176762306199E+03    0.48098E-04   -0.32700E-04  3867   0.569E-02    0.310E-02
RMM:   7    -0.176762297287E+03    0.89122E-05   -0.44641E-05  2534   0.262E-02
 144 F= -.17676230E+03 E0= -.17673828E+03  d E =-.720645E-01
       N       E                     dE             d eps       ncg     rms          rms(c)
DAV:   1    -0.176759815534E+03    0.24907E-02   -0.25600E+00  3256   0.289E+00    0.101E-01
RMM:   2    -0.176762609460E+03   -0.27939E-02   -0.29657E-02  3248   0.746E-01    0.101E-01
RMM:   3    -0.176764141211E+03   -0.15318E-02   -0.17048E-02  4534   0.337E-01    0.866E-02
RMM:   4    -0.176764108819E+03    0.32392E-04   -0.53724E-04  3536   0.528E-02    0.754E-02
RMM:   5    -0.176764040232E+03    0.68587E-04   -0.11392E-04  3211   0.438E-02    0.600E-02
RMM:   6    -0.176763985560E+03    0.54672E-04   -0.33359E-04  3871   0.572E-02    0.303E-02
RMM:   7    -0.176763978528E+03    0.70318E-05   -0.49054E-05  2635   0.283E-02
 145 F= -.17676398E+03 E0= -.17673996E+03  d E =-.720476E-01
       N       E                     dE             d eps       ncg     rms          rms(c)
DAV:   1    -0.176756798939E+03    0.71866E-02   -0.21602E+00  3240   0.268E+00    0.158E-01
RMM:   2    -0.176760567960E+03   -0.37690E-02   -0.40906E-02  3302   0.705E-01    0.105E-01
RMM:   3    -0.176761992517E+03   -0.14246E-02   -0.17045E-02  4211   0.340E-01    0.119E-01
RMM:   4    -0.176761889876E+03    0.10264E-03   -0.14690E-03  3599   0.116E-01    0.685E-02
RMM:   5    -0.176761880215E+03    0.96614E-05   -0.39714E-04  3490   0.600E-02    0.611E-02
RMM:   6    -0.176761843467E+03    0.36747E-04   -0.20815E-04  3287   0.550E-02    0.271E-02
RMM:   7    -0.176761846400E+03   -0.29334E-05   -0.10695E-04  3300   0.339E-02    0.217E-02
RMM:   8    -0.176761842276E+03    0.41244E-05   -0.27499E-05  2082   0.185E-02
 146 F= -.17676184E+03 E0= -.17673783E+03  d E =-.720484E-01
       N       E                     dE             d eps       ncg     rms          rms(c)
DAV:   1    -0.176762831613E+03   -0.98521E-03   -0.17633E+00  3240   0.195E+00    0.174E-01
RMM:   2    -0.176765856772E+03   -0.30252E-02   -0.34403E-02  3327   0.461E-01    0.125E-01
RMM:   3    -0.176766888519E+03   -0.10317E-02   -0.12570E-02  3611   0.257E-01    0.135E-01
RMM:   4    -0.176766708919E+03    0.17960E-03   -0.14725E-03  3343   0.127E-01    0.611E-02
RMM:   5    -0.176766742236E+03   -0.33317E-04   -0.62673E-04  3508   0.753E-02    0.561E-02
RMM:   6    -0.176766731883E+03    0.10353E-04   -0.21869E-04  3235   0.557E-02    0.353E-02
RMM:   7    -0.176766723762E+03    0.81217E-05   -0.95732E-05  3014   0.306E-02
 147 F= -.17676672E+03 E0= -.17674256E+03  d E =-.724846E-01
       N       E                     dE             d eps       ncg     rms          rms(c)
DAV:   1    -0.176731177349E+03    0.35555E-01   -0.17419E+00  3240   0.190E+00    0.219E-01
RMM:   2    -0.176735064187E+03   -0.38868E-02   -0.37887E-02  3316   0.482E-01    0.280E-01
RMM:   3    -0.176735026143E+03    0.38043E-04   -0.12927E-02  3435   0.303E-01    0.148E-01
RMM:   4    -0.176734873151E+03    0.15299E-03   -0.20554E-03  3371   0.145E-01    0.692E-02
RMM:   5    -0.176734866557E+03    0.65939E-05   -0.76152E-04  3485   0.837E-02    0.553E-02
RMM:   6    -0.176734860335E+03    0.62215E-05   -0.27586E-04  3306   0.558E-02    0.298E-02
RMM:   7    -0.176734858206E+03    0.21291E-05   -0.11270E-04  3215   0.372E-02    0.100E-02
RMM:   8    -0.176734864589E+03   -0.63828E-05   -0.37324E-05  2258   0.161E-02
 148 F= -.17673486E+03 E0= -.17671092E+03  d E =-.718404E-01
       N       E                     dE             d eps       ncg     rms          rms(c)
DAV:   1    -0.176760074746E+03   -0.25217E-01   -0.95067E-01  3248   0.132E+00    0.261E-01
RMM:   2    -0.176764011721E+03   -0.39370E-02   -0.30900E-02  3299   0.395E-01    0.360E-01
RMM:   3    -0.176762774753E+03    0.12370E-02   -0.10455E-02  3328   0.299E-01    0.154E-01
RMM:   4    -0.176762671728E+03    0.10303E-03   -0.19195E-03  3325   0.148E-01    0.772E-02
RMM:   5    -0.176762665204E+03    0.65243E-05   -0.71613E-04  3501   0.757E-02    0.537E-02
RMM:   6    -0.176762678095E+03   -0.12891E-04   -0.30374E-04  3305   0.604E-02    0.391E-02
RMM:   7    -0.176762664141E+03    0.13954E-04   -0.12172E-04  3212   0.448E-02    0.963E-03
RMM:   8    -0.176762668343E+03   -0.42012E-05   -0.44309E-05  2324   0.176E-02
 149 F= -.17676267E+03 E0= -.17673865E+03  d E =-.720630E-01
       N       E                     dE             d eps       ncg     rms          rms(c)
DAV:   1    -0.176757741153E+03    0.49230E-02   -0.14082E-01  3300   0.365E-01    0.136E-01
RMM:   2    -0.176758135995E+03   -0.39484E-03   -0.34423E-03  3249   0.116E-01    0.128E-01
RMM:   3    -0.176758094797E+03    0.41197E-04   -0.12760E-03  3317   0.955E-02    0.863E-02
RMM:   4    -0.176758113446E+03   -0.18648E-04   -0.44094E-04  3284   0.840E-02    0.569E-02
RMM:   5    -0.176758098237E+03    0.15208E-04   -0.15538E-04  3187   0.500E-02    0.164E-02
RMM:   6    -0.176758103942E+03   -0.57046E-05   -0.60726E-05  2599   0.273E-02
 150 F= -.17675810E+03 E0= -.17673418E+03  d E =-.717753E-01
       N       E                     dE             d eps       ncg     rms          rms(c)
DAV:   1    -0.176763964827E+03   -0.58666E-02   -0.13916E-01  3296   0.375E-01    0.167E-01
RMM:   2    -0.176764650219E+03   -0.68539E-03   -0.42666E-03  3288   0.129E-01    0.203E-01
RMM:   3    -0.176764140129E+03    0.51009E-03   -0.16887E-03  3275   0.130E-01    0.970E-02
RMM:   4    -0.176764125149E+03    0.14980E-04   -0.53100E-04  3285   0.911E-02    0.602E-02
RMM:   5    -0.176764133398E+03   -0.82494E-05   -0.17299E-04  3214   0.427E-02    0.201E-02
RMM:   6    -0.176764136058E+03   -0.26594E-05   -0.66335E-05  2918   0.325E-02
 151 F= -.17676414E+03 E0= -.17674010E+03  d E =-.721009E-01
       N       E                     dE             d eps       ncg     rms          rms(c)
DAV:   1    -0.176763125298E+03    0.10081E-02   -0.13606E-01  3264   0.476E-01    0.203E-01
RMM:   2    -0.176764057863E+03   -0.93257E-03   -0.48907E-03  3312   0.149E-01    0.289E-01
RMM:   3    -0.176762841530E+03    0.12163E-02   -0.21295E-03  3287   0.164E-01    0.111E-01
RMM:   4    -0.176762790865E+03    0.50665E-04   -0.70130E-04  3303   0.104E-01    0.661E-02
RMM:   5    -0.176762775502E+03    0.15363E-04   -0.24272E-04  3351   0.472E-02    0.238E-02
RMM:   6    -0.176762781710E+03   -0.62081E-05   -0.95117E-05  3213   0.389E-02
 152 F= -.17676278E+03 E0= -.17673874E+03  d E =-.721241E-01
       N       E                     dE             d eps       ncg     rms          rms(c)
DAV:   1    -0.176759020158E+03    0.37553E-02   -0.12146E-01  3248   0.463E-01    0.302E-02
RMM:   2    -0.176759083962E+03   -0.63804E-04   -0.71676E-04  3172   0.924E-02    0.261E-02
RMM:   3    -0.176759089180E+03   -0.52180E-05   -0.16064E-04  2926   0.399E-02    0.210E-02
RMM:   4    -0.176759089363E+03   -0.18222E-06   -0.58196E-05  2587   0.299E-02    0.139E-02
RMM:   5    -0.176759089056E+03    0.30658E-06   -0.24901E-05  2047   0.184E-02    0.524E-03
RMM:   6    -0.176759089880E+03   -0.82370E-06   -0.88249E-06  1869   0.116E-02
 153 F= -.17675909E+03 E0= -.17673507E+03  d E =-.720495E-01
       N       E                     dE             d eps       ncg     rms          rms(c)
DAV:   1    -0.176738220602E+03    0.20868E-01   -0.12089E-01  3248   0.430E-01    0.477E-02
RMM:   2    -0.176738281635E+03   -0.61033E-04   -0.10339E-03  3118   0.107E-01    0.357E-02
RMM:   3    -0.176738283687E+03   -0.20518E-05   -0.24601E-04  3117   0.526E-02    0.313E-02
RMM:   4    -0.176738276758E+03    0.69289E-05   -0.82312E-05  2642   0.340E-02    0.131E-02
RMM:   5    -0.176738276531E+03    0.22702E-06   -0.33205E-05  2178   0.201E-02    0.106E-02
RMM:   6    -0.176738275531E+03    0.99992E-06   -0.15442E-05  1911   0.156E-02
 154 F= -.17673828E+03 E0= -.17671427E+03  d E =-.720016E-01
