<?xml version="1.0" encoding="ISO-8859-1"?>
<modeling>
 <generator>
  <i name="program" type="string">vasp </i>
  <i name="version" type="string">6.4.1  </i>
  <i name="subversion" type="string">05Apr23 (build Jun 16 2023 21:11:36) complex                          parallel </i>
  <i name="platform" type="string">LinuxIFC </i>
  <i name="date" type="string">2026 03 07 </i>
  <i name="time" type="string">16:55:32 </i>
 </generator>
 <incar>
  <i type="string" name="SYSTEM">Bulk Frequency (Finite Difference)</i>
  <i type="string" name="ALGO">F</i>
  <i type="int" name="NELM">   150</i>
  <i type="int" name="NELMIN">     6</i>
  <i type="int" name="IBRION">     5</i>
  <i type="int" name="NFREE">     1</i>
  <i name="EDIFF">      0.00001000</i>
  <i type="int" name="ISIF">     2</i>
  <i type="int" name="ISYM">     0</i>
  <i name="ENCUT">    500.00000000</i>
  <i name="POTIM">      0.01500000</i>
  <i type="string" name="LREAL">Auto</i>
  <i type="int" name="ISMEAR">     1</i>
  <i name="SIGMA">      0.10000000</i>
  <i type="logical" name="LWAVE"> F  </i>
  <i type="logical" name="LCHARG"> F  </i>
 </incar>
 <primitive_cell>
  <structure name="primitive_cell" >
   <crystal>
    <varray name="basis" >
     <v>      10.11850195       0.00000000       0.00000000 </v>
     <v>      -5.05925097       8.76287974       0.00000000 </v>
     <v>       0.00000000       0.00000000      18.58887505 </v>
    </varray>
    <i name="volume">   1648.22379336 </i>
    <varray name="rec_basis" >
     <v>       0.09882886       0.05705887      -0.00000000 </v>
     <v>       0.00000000       0.11411774      -0.00000000 </v>
     <v>       0.00000000       0.00000000       0.05379562 </v>
    </varray>
   </crystal>
   <varray name="positions" >
    <v>       0.99897919       0.00134834       0.61202890 </v>
    <v>       0.00021600       0.25041067       0.61471980 </v>
    <v>       0.99558120       0.49704650       0.61207499 </v>
    <v>       0.99567700       0.74957456       0.61109056 </v>
    <v>       0.24425896       0.00480009       0.61771541 </v>
    <v>       0.25051981       0.25259022       0.61197487 </v>
    <v>       0.25139955       0.49702882       0.61208801 </v>
    <v>       0.25171957       0.75344558       0.60158889 </v>
    <v>       0.51056396       0.00480484       0.61768620 </v>
    <v>       0.50332374       0.25664178       0.61103195 </v>
    <v>       0.50112329       0.50141587       0.61334837 </v>
    <v>       0.50386696       0.74957000       0.61109416 </v>
    <v>       0.75237148       0.00137663       0.61202777 </v>
    <v>       0.75206495       0.25259844       0.61197297 </v>
    <v>       0.75026455       0.50139432       0.61334749 </v>
    <v>       0.75050399       0.75094043       0.61329256 </v>
    <v>       0.08333535       0.16671059       0.38889148 </v>
    <v>       0.08329684       0.41659326       0.38880872 </v>
    <v>       0.08324354       0.66662851       0.38873048 </v>
    <v>       0.08327422       0.91673155       0.38878459 </v>
    <v>       0.33333281       0.16668958       0.38886514 </v>
    <v>       0.33334809       0.41663014       0.38883794 </v>
    <v>       0.33338527       0.66662850       0.38873044 </v>
    <v>       0.33338990       0.91677985       0.38871267 </v>
    <v>       0.58335698       0.16668847       0.38886516 </v>
    <v>       0.58336764       0.41668268       0.38888436 </v>
    <v>       0.58338430       0.66665940       0.38882993 </v>
    <v>       0.58345920       0.91673156       0.38878458 </v>
    <v>       0.83337555       0.16670953       0.38889160 </v>
    <v>       0.83328408       0.41663008       0.38883801 </v>
    <v>       0.83327594       0.66665940       0.38883011 </v>
    <v>       0.83337161       0.91667097       0.38887627 </v>
    <v>       0.16661106       0.08337393       0.49995505 </v>
    <v>       0.16660834       0.33317385       0.49987332 </v>
    <v>       0.16634798       0.58269386       0.49927835 </v>
    <v>       0.16605135       0.83396939       0.49904215 </v>
    <v>       0.41688947       0.08377902       0.49977113 </v>
    <v>       0.41664008       0.33340476       0.50000806 </v>
    <v>       0.41691424       0.58326606       0.49976107 </v>
    <v>       0.41791861       0.83396986       0.49904167 </v>
    <v>       0.66676350       0.08337370       0.49995493 </v>
    <v>       0.66676521       0.33340483       0.50000845 </v>
    <v>       0.66664283       0.58331601       0.49994300 </v>
    <v>       0.66692375       0.83340967       0.49987179 </v>
    <v>       0.91673347       0.08345076       0.50002496 </v>
    <v>       0.91656583       0.33317328       0.49987345 </v>
    <v>       0.91635132       0.58326635       0.49976117 </v>
    <v>       0.91648512       0.83340829       0.49987254 </v>
    <v>       0.35190228       0.95372088       0.68585755 </v>
    <v>       0.37772324       0.00522712       0.73515682 </v>
    <v>       0.19835585       0.64689068       0.71887423 </v>
   </varray>
  </structure>
  <varray name="primitive_index" >
   <v type="int" >        1 </v>
   <v type="int" >        2 </v>
   <v type="int" >        3 </v>
   <v type="int" >        4 </v>
   <v type="int" >        5 </v>
   <v type="int" >        6 </v>
   <v type="int" >        7 </v>
   <v type="int" >        8 </v>
   <v type="int" >        9 </v>
   <v type="int" >       10 </v>
   <v type="int" >       11 </v>
   <v type="int" >       12 </v>
   <v type="int" >       13 </v>
   <v type="int" >       14 </v>
   <v type="int" >       15 </v>
   <v type="int" >       16 </v>
   <v type="int" >       17 </v>
   <v type="int" >       18 </v>
   <v type="int" >       19 </v>
   <v type="int" >       20 </v>
   <v type="int" >       21 </v>
   <v type="int" >       22 </v>
   <v type="int" >       23 </v>
   <v type="int" >       24 </v>
   <v type="int" >       25 </v>
   <v type="int" >       26 </v>
   <v type="int" >       27 </v>
   <v type="int" >       28 </v>
   <v type="int" >       29 </v>
   <v type="int" >       30 </v>
   <v type="int" >       31 </v>
   <v type="int" >       32 </v>
   <v type="int" >       33 </v>
   <v type="int" >       34 </v>
   <v type="int" >       35 </v>
   <v type="int" >       36 </v>
   <v type="int" >       37 </v>
   <v type="int" >       38 </v>
   <v type="int" >       39 </v>
   <v type="int" >       40 </v>
   <v type="int" >       41 </v>
   <v type="int" >       42 </v>
   <v type="int" >       43 </v>
   <v type="int" >       44 </v>
   <v type="int" >       45 </v>
   <v type="int" >       46 </v>
   <v type="int" >       47 </v>
   <v type="int" >       48 </v>
   <v type="int" >       49 </v>
   <v type="int" >       50 </v>
   <v type="int" >       51 </v>
  </varray>
 </primitive_cell>
 <kpoints>
  <generation param="Gamma">
   <v type="int" name="divisions">       3        3        1 </v>
   <v name="usershift">      0.00000000       0.00000000       0.00000000 </v>
   <v name="genvec1">      0.33333333       0.00000000       0.00000000 </v>
   <v name="genvec2">      0.00000000       0.33333333       0.00000000 </v>
   <v name="genvec3">      0.00000000       0.00000000       1.00000000 </v>
   <v name="shift">      0.00000000       0.00000000       0.00000000 </v>
  </generation>
  <varray name="kpointlist" >
   <v>       0.00000000       0.00000000       0.00000000 </v>
   <v>       0.33333333       0.00000000      -0.00000000 </v>
   <v>       0.00000000       0.33333333      -0.00000000 </v>
   <v>      -0.33333333       0.33333333      -0.00000000 </v>
   <v>       0.33333333       0.33333333      -0.00000000 </v>
  </varray>
  <varray name="weights" >
   <v>       0.11111111 </v>
   <v>       0.22222222 </v>
   <v>       0.22222222 </v>
   <v>       0.22222222 </v>
   <v>       0.22222222 </v>
  </varray>
 </kpoints>
 <parameters>
  <separator name="general" >
   <i type="string" name="SYSTEM">Bulk Frequency (Finite Difference)</i>
   <i type="logical" name="LCOMPAT"> F  </i>
  </separator>
  <separator name="electronic" >
   <i type="string" name="PREC">normal</i>
   <i name="ENMAX">    500.00000000</i>
   <i name="ENAUG">    627.11200000</i>
   <i name="EDIFF">      0.00001000</i>
   <i type="int" name="IALGO">    68</i>
   <i type="int" name="IWAVPR">    11</i>
   <i type="int" name="NBANDS">   324</i>
   <i type="int" name="NBANDSLOW">    -1</i>
   <i type="int" name="NBANDSHIGH">    -1</i>
   <i name="NELECT">    535.00000000</i>
   <i type="int" name="TURBO">     0</i>
   <i type="int" name="IRESTART">     0</i>
   <i type="int" name="NREBOOT">     0</i>
   <i type="int" name="NMIN">     0</i>
   <i name="EREF">      0.00000000</i>
   <separator name="electronic smearing" >
    <i type="int" name="ISMEAR">     1</i>
    <i name="SIGMA">      0.10000000</i>
    <i name="KSPACING">      0.50000000</i>
    <i type="logical" name="KGAMMA"> T  </i>
    <i type="logical" name="KBLOWUP"> T  </i>
   </separator>
   <separator name="electronic projectors" >
    <i type="logical" name="LREAL"> T  </i>
    <v name="ROPT">     -0.00050000     -0.00050000     -0.00050000</v>
    <i type="int" name="LMAXPAW">  -100</i>
    <i type="int" name="LMAXMIX">     2</i>
    <i type="logical" name="NLSPLINE"> F  </i>
   </separator>
   <separator name="electronic startup" >
    <i type="int" name="ISTART">     0</i>
    <i type="int" name="ICHARG">     2</i>
    <i type="int" name="INIWAV">     1</i>
   </separator>
   <separator name="electronic spin" >
    <i type="int" name="ISPIN">     1</i>
    <i type="logical" name="LNONCOLLINEAR"> F  </i>
    <v name="MAGMOM">      1.00000000      1.00000000      1.00000000      1.00000000      1.00000000      1.00000000      1.00000000      1.00000000      1.00000000      1.00000000      1.00000000      1.00000000      1.00000000      1.00000000      1.00000000      1.00000000      1.00000000      1.00000000      1.00000000      1.00000000
      1.00000000      1.00000000      1.00000000      1.00000000      1.00000000      1.00000000      1.00000000      1.00000000      1.00000000      1.00000000      1.00000000      1.00000000      1.00000000      1.00000000      1.00000000      1.00000000      1.00000000      1.00000000      1.00000000      1.00000000
      1.00000000      1.00000000      1.00000000      1.00000000      1.00000000      1.00000000      1.00000000      1.00000000      1.00000000      1.00000000      1.00000000</v>
    <i name="NUPDOWN">     -1.00000000</i>
    <i type="logical" name="LSORBIT"> F  </i>
    <v name="SAXIS">      0.00000000      0.00000000      1.00000000</v>
    <i type="logical" name="LSPIRAL"> F  </i>
    <v name="QSPIRAL">      0.00000000      0.00000000      0.00000000</v>
    <i type="logical" name="LZEROZ"> F  </i>
   </separator>
   <separator name="electronic exchange-correlation" >
    <i type="logical" name="LASPH"> F  </i>
    <i type="logical" name="LMETAGGA"> F  </i>
   </separator>
   <separator name="electronic convergence" >
    <i type="int" name="NELM">   150</i>
    <i type="int" name="NELMDL">    -5</i>
    <i type="int" name="NELMIN">     6</i>
    <i name="ENINI">    500.00000000</i>
    <separator name="electronic convergence detail" >
     <i type="logical" name="LDIAG"> T  </i>
     <i type="logical" name="LSUBROT"> F  </i>
     <i name="WEIMIN">      0.00100000</i>
     <i name="EBREAK">      0.00000001</i>
     <i name="DEPER">      0.30000000</i>
     <i type="int" name="NRMM">     4</i>
     <i name="TIME">      0.40000000</i>
    </separator>
   </separator>
   <separator name="electronic mixer" >
    <i name="AMIX">      0.40000000</i>
    <i name="BMIX">      1.00000000</i>
    <i name="AMIN">      0.10000000</i>
    <i name="AMIX_MAG">      1.60000000</i>
    <i name="BMIX_MAG">      1.00000000</i>
    <separator name="electronic mixer details" >
     <i type="int" name="IMIX">     4</i>
     <i type="logical" name="MIXFIRST"> F  </i>
     <i type="int" name="MAXMIX">   -45</i>
     <i name="WC">    100.00000000</i>
     <i type="int" name="INIMIX">     1</i>
     <i type="int" name="MIXPRE">     1</i>
     <i type="int" name="MREMOVE">     5</i>
    </separator>
   </separator>
   <separator name="electronic dipolcorrection" >
    <i type="logical" name="LDIPOL"> F  </i>
    <i type="logical" name="LMONO"> F  </i>
    <i type="int" name="IDIPOL">     0</i>
    <i name="EPSILON">      1.00000000</i>
    <v name="DIPOL">   -100.00000000   -100.00000000   -100.00000000</v>
    <i name="EFIELD">      0.00000000</i>
   </separator>
  </separator>
  <separator name="grids" >
   <i type="int" name="NGX">    56</i>
   <i type="int" name="NGY">    56</i>
   <i type="int" name="NGZ">   108</i>
   <i type="int" name="NGXF">   112</i>
   <i type="int" name="NGYF">   112</i>
   <i type="int" name="NGZF">   216</i>
   <i type="logical" name="ADDGRID"> F  </i>
  </separator>
  <separator name="ionic" >
   <i type="int" name="NSW">   649</i>
   <i type="int" name="IBRION">     5</i>
   <i type="int" name="MDALGO">     0</i>
   <i type="int" name="ISIF">     2</i>
   <i name="PSTRESS">      0.00000000</i>
   <i name="EDIFFG">      0.00010000</i>
   <i type="int" name="NFREE">     1</i>
   <i name="POTIM">      0.01500000</i>
   <i name="SMASS">     -3.00000000</i>
   <i name="SCALEE">      1.00000000</i>
  </separator>
  <separator name="ionic md" >
   <i name="TEBEG">      0.00010000</i>
   <i name="TEEND">      0.00010000</i>
   <i type="int" name="NBLOCK">     1</i>
   <i type="int" name="KBLOCK">   649</i>
   <i type="int" name="NPACO">   256</i>
   <i name="APACO">     10.00000000</i>
  </separator>
  <separator name="symmetry" >
   <i type="int" name="ISYM">     0</i>
   <i name="SYMPREC">      0.00001000</i>
  </separator>
  <separator name="dos" >
   <i type="int" name="LORBIT">     0</i>
   <v name="RWIGS">     -1.00000000     -1.00000000     -1.00000000</v>
   <i type="int" name="NEDOS">   301</i>
   <i name="EMIN">     10.00000000</i>
   <i name="EMAX">    -10.00000000</i>
   <i name="EFERMI">      0.00000000</i>
  </separator>
  <separator name="writing" >
   <i type="int" name="NWRITE">     2</i>
   <i type="logical" name="LWAVE"> F  </i>
   <i type="logical" name="LDOWNSAMPLE"> F  </i>
   <i type="logical" name="LCHARG"> F  </i>
   <i type="logical" name="LPARD"> F  </i>
   <i type="logical" name="LVTOT"> F  </i>
   <i type="logical" name="LVHAR"> F  </i>
   <i type="logical" name="LELF"> F  </i>
   <i type="logical" name="LOPTICS"> F  </i>
   <v name="STM">      0.00000000      0.00000000      0.00000000      0.00000000      0.00000000      0.00000000      0.00000000</v>
  </separator>
  <separator name="performance" >
   <i type="int" name="NPAR">     4</i>
   <i type="int" name="NSIM">     4</i>
   <i type="int" name="NBLK">    -1</i>
   <i type="logical" name="LPLANE"> T  </i>
   <i type="logical" name="LSCALAPACK"> T  </i>
   <i type="logical" name="LSCAAWARE"> F  </i>
   <i type="logical" name="LSCALU"> F  </i>
   <i type="logical" name="LASYNC"> F  </i>
   <i type="logical" name="LORBITALREAL"> F  </i>
  </separator>
  <separator name="miscellaneous" >
   <i type="int" name="IDIOT">     3</i>
   <i type="int" name="PHON_NSTRUCT">    -1</i>
   <i type="logical" name="LMUSIC"> F  </i>
   <v name="POMASS">     63.54600000     14.00100000      1.00000000</v>
   <v name="DARWINR">      0.00000000      0.00000000      0.00000000</v>
   <v name="DARWINV">      1.00000000      1.00000000      1.00000000</v>
   <i type="logical" name="LCORR"> T  </i>
  </separator>
  <i type="logical" name="GGA_COMPAT"> T  </i>
  <i type="logical" name="LBERRY"> F  </i>
  <i type="int" name="ICORELEVEL">     0</i>
  <i type="logical" name="LDAU"> F  </i>
  <i type="int" name="I_CONSTRAINED_M">     0</i>
  <separator name="electronic exchange-correlation" >
   <i type="string" name="GGA">--</i>
   <i type="int" name="VOSKOWN">     0</i>
   <i type="logical" name="LHFCALC"> F  </i>
   <i type="string" name="PRECFOCK"></i>
   <i type="logical" name="LSYMGRAD"> F  </i>
   <i type="logical" name="LHFONE"> F  </i>
   <i type="logical" name="LRHFCALC"> F  </i>
   <i type="logical" name="LTHOMAS"> F  </i>
   <i type="logical" name="LMODELHF"> F  </i>
   <i type="logical" name="LFOCKACE"> F  </i>
   <i name="ENCUT4O">     -1.00000000</i>
   <i type="int" name="EXXOEP">     0</i>
   <i type="int" name="FOURORBIT">     0</i>
   <i name="AEXX">      0.00000000</i>
   <i name="HFALPHA">      0.00000000</i>
   <i name="MCALPHA">      0.00000000</i>
   <i name="ALDAX">      1.00000000</i>
   <i name="AGGAX">      1.00000000</i>
   <i name="ALDAC">      1.00000000</i>
   <i name="AGGAC">      1.00000000</i>
   <i type="int" name="NKREDX">     1</i>
   <i type="int" name="NKREDY">     1</i>
   <i type="int" name="NKREDZ">     1</i>
   <i type="logical" name="SHIFTRED"> F  </i>
   <i type="logical" name="ODDONLY"> F  </i>
   <i type="logical" name="EVENONLY"> F  </i>
   <i type="int" name="LMAXFOCK">     0</i>
   <i type="int" name="NMAXFOCKAE">     0</i>
   <i type="logical" name="LFOCKAEDFT"> F  </i>
   <i name="HFSCREEN">      0.00000000</i>
   <i name="HFSCREENC">      0.00000000</i>
   <i type="int" name="NBANDSGWLOW">     0</i>
  </separator>
  <separator name="vdW DFT" >
   <i type="logical" name="LUSE_VDW"> F  </i>
   <i type="int" name="IVDW_NL">     1</i>
   <i type="logical" name="LSPIN_VDW"> F  </i>
   <i name="Zab_VDW">     -0.84910000</i>
   <i name="PARAM1">      0.12340000</i>
   <i name="PARAM2">      1.00000000</i>
   <i name="PARAM3">      0.00000000</i>
  </separator>
  <separator name="model GW" >
   <i type="int" name="MODEL_GW">     0</i>
   <i name="MODEL_EPS0">     19.39086816</i>
   <i name="MODEL_ALPHA">      1.00000000</i>
  </separator>
  <separator name="linear response parameters" >
   <i type="logical" name="LEPSILON"> F  </i>
   <i type="logical" name="LRPA"> F  </i>
   <i type="logical" name="LNABLA"> F  </i>
   <i type="logical" name="LVEL"> F  </i>
   <i name="CSHIFT">      0.10000000</i>
   <i name="OMEGAMAX">     -1.00000000</i>
   <i name="DEG_THRESHOLD">      0.00200000</i>
   <i name="RTIME">     -0.10000000</i>
   <i name="WPLASMAI">      0.00000000</i>
   <v name="DFIELD">      0.00000000      0.00000000      0.00000000</v>
   <v name="WPLASMA">      0.00000000      0.00000000      0.00000000      0.00000000      0.00000000      0.00000000      0.00000000      0.00000000      0.00000000</v>
  </separator>
  <separator name="orbital magnetization" >
   <i type="logical" name="NUCIND"> F  </i>
   <v name="MAGPOS">      0.00000000      0.00000000      0.00000000</v>
   <i type="logical" name="LNICSALL"> T  </i>
   <i type="logical" name="ORBITALMAG"> F  </i>
   <i type="logical" name="LMAGBLOCH"> F  </i>
   <i type="logical" name="LCHIMAG"> F  </i>
   <i type="logical" name="LGAUGE"> T  </i>
   <i type="int" name="MAGATOM">     0</i>
   <v name="MAGDIPOL">      0.00000000      0.00000000      0.00000000</v>
   <v name="AVECCONST">      0.00000000      0.00000000      0.00000000</v>
  </separator>
  <separator name="response functions" >
   <i type="logical" name="LALL_IN_ONE"> F  </i>
   <i type="int" name="IALL_IN_ONE">    -1</i>
   <i type="int" name="NBANDS_WAVE">    -1</i>
   <i type="logical" name="LFINITE_TEMPERATURE"> F  </i>
   <i type="logical" name="LADDER"> F  </i>
   <i type="logical" name="LRPAFORCE"> F  </i>
   <i type="logical" name="LFXC"> F  </i>
   <i type="logical" name="LHARTREE"> T  </i>
   <i type="int" name="IBSE">     0</i>
   <v type="int" name="KPOINT">    -1     0     0     0</v>
   <i type="logical" name="LTCTC"> F  </i>
   <i type="logical" name="LTCTE"> F  </i>
   <i type="logical" name="LTETE"> F  </i>
   <i type="logical" name="LTRIPLET"> F  </i>
   <i type="logical" name="LFXCEPS"> F  </i>
   <i type="logical" name="LFXHEG"> F  </i>
   <i type="int" name="NATURALO">     2</i>
   <i type="logical" name="LHOLEGF"> F  </i>
   <i type="logical" name="L2ORDER"> F  </i>
   <i type="logical" name="LDMP1"> F  </i>
   <i type="logical" name="LMP2LT"> F  </i>
   <i type="logical" name="LSMP2LT"> F  </i>
   <i type="logical" name="LGWLF"> F  </i>
   <i name="ENCUTGW">     -1.60000002</i>
   <i name="ENCUTGWSOFT">     -1.60000002</i>
   <i name="ENCUTLF">     -1.00000000</i>
   <i type="logical" name="LESF_SPLINES"> F  </i>
   <i type="int" name="LMAXMP2">    -1</i>
   <i name="SCISSOR">      0.00000000</i>
   <i type="int" name="NOMEGA">     0</i>
   <i type="int" name="NOMEGAR">     0</i>
   <i type="int" name="NBANDSGW">    -1</i>
   <i type="int" name="NBANDSO">    -1</i>
   <i type="int" name="NBANDSV">    -1</i>
   <i type="int" name="NELMGW">     1</i>
   <i type="int" name="NELMHF">     1</i>
   <i type="int" name="DIM">     3</i>
   <i type="int" name="IESPILON">     4</i>
   <i type="int" name="ANTIRES">     0</i>
   <i name="OMEGAMAX">    -30.00000000</i>
   <i name="OMEGAMIN">    -30.00000000</i>
   <i name="OMEGATL">   -200.00000000</i>
   <i type="int" name="OMEGAGRID">     0</i>
   <i name="CSHIFT">     -0.10000000</i>
   <i type="logical" name="LSELFENERGY"> F  </i>
   <i type="logical" name="LSPECTRAL"> F  </i>
   <i type="logical" name="LSPECTRALGW"> F  </i>
   <i type="logical" name="LSINGLES"> F  </i>
   <i type="logical" name="LFERMIGW"> F  </i>
   <i type="logical" name="ODDONLYGW"> F  </i>
   <i type="logical" name="EVENONLYGW"> F  </i>
   <i type="int" name="NKREDLFX">     1</i>
   <i type="int" name="NKREDLFY">     1</i>
   <i type="int" name="NKREDLFZ">     1</i>
   <i type="int" name="MAXMEM">  2800</i>
   <i type="int" name="TELESCOPE">     0</i>
   <i type="int" name="NTAUPAR">    -1</i>
   <i type="int" name="NOMEGAPAR">    -1</i>
   <i name="DAMP_NEWTON">      0.80000001</i>
   <i name="LAMBDA">      1.00000000</i>
  </separator>
  <separator name="External order field" >
   <i name="OFIELD_KAPPA">      0.00000000</i>
   <v name="OFIELD_K">      0.00000000      0.00000000      0.00000000</v>
   <i name="OFIELD_Q6_NEAR">      0.00000000</i>
   <i name="OFIELD_Q6_FAR">      0.00000000</i>
   <i name="OFIELD_A">      0.00000000</i>
  </separator>
  <separator name="optional k-points parameters" >
   <i type="int" name="KPOINTS_OPT_MODE">     1</i>
   <i type="logical" name="LKPOINTS_OPT"> F  </i>
  </separator>
  <separator name="solvation model" >
   <i type="logical" name="LSOL"> F  </i>
  </separator>
 </parameters>
 <atominfo>
  <atoms>      51 </atoms>
  <types>       3 </types>
  <array name="atoms" >
   <dimension dim="1">ion</dimension>
   <field type="string">element</field>
   <field type="int">atomtype</field>
   <set>
    <rc><c>Cu</c><c>   1</c></rc>
    <rc><c>Cu</c><c>   1</c></rc>
    <rc><c>Cu</c><c>   1</c></rc>
    <rc><c>Cu</c><c>   1</c></rc>
    <rc><c>Cu</c><c>   1</c></rc>
    <rc><c>Cu</c><c>   1</c></rc>
    <rc><c>Cu</c><c>   1</c></rc>
    <rc><c>Cu</c><c>   1</c></rc>
    <rc><c>Cu</c><c>   1</c></rc>
    <rc><c>Cu</c><c>   1</c></rc>
    <rc><c>Cu</c><c>   1</c></rc>
    <rc><c>Cu</c><c>   1</c></rc>
    <rc><c>Cu</c><c>   1</c></rc>
    <rc><c>Cu</c><c>   1</c></rc>
    <rc><c>Cu</c><c>   1</c></rc>
    <rc><c>Cu</c><c>   1</c></rc>
    <rc><c>Cu</c><c>   1</c></rc>
    <rc><c>Cu</c><c>   1</c></rc>
    <rc><c>Cu</c><c>   1</c></rc>
    <rc><c>Cu</c><c>   1</c></rc>
    <rc><c>Cu</c><c>   1</c></rc>
    <rc><c>Cu</c><c>   1</c></rc>
    <rc><c>Cu</c><c>   1</c></rc>
    <rc><c>Cu</c><c>   1</c></rc>
    <rc><c>Cu</c><c>   1</c></rc>
    <rc><c>Cu</c><c>   1</c></rc>
    <rc><c>Cu</c><c>   1</c></rc>
    <rc><c>Cu</c><c>   1</c></rc>
    <rc><c>Cu</c><c>   1</c></rc>
    <rc><c>Cu</c><c>   1</c></rc>
    <rc><c>Cu</c><c>   1</c></rc>
    <rc><c>Cu</c><c>   1</c></rc>
    <rc><c>Cu</c><c>   1</c></rc>
    <rc><c>Cu</c><c>   1</c></rc>
    <rc><c>Cu</c><c>   1</c></rc>
    <rc><c>Cu</c><c>   1</c></rc>
    <rc><c>Cu</c><c>   1</c></rc>
    <rc><c>Cu</c><c>   1</c></rc>
    <rc><c>Cu</c><c>   1</c></rc>
    <rc><c>Cu</c><c>   1</c></rc>
    <rc><c>Cu</c><c>   1</c></rc>
    <rc><c>Cu</c><c>   1</c></rc>
    <rc><c>Cu</c><c>   1</c></rc>
    <rc><c>Cu</c><c>   1</c></rc>
    <rc><c>Cu</c><c>   1</c></rc>
    <rc><c>Cu</c><c>   1</c></rc>
    <rc><c>Cu</c><c>   1</c></rc>
    <rc><c>Cu</c><c>   1</c></rc>
    <rc><c>N </c><c>   2</c></rc>
    <rc><c>H </c><c>   3</c></rc>
    <rc><c>H </c><c>   3</c></rc>
   </set>
  </array>
  <array name="atomtypes" >
   <dimension dim="1">type</dimension>
   <field type="int">atomspertype</field>
   <field type="string">element</field>
   <field>mass</field>
   <field>valence</field>
   <field type="string">pseudopotential</field>
   <set>
    <rc><c>  48</c><c>Cu</c><c>     63.54600000</c><c>     11.00000000</c><c>  PAW_PBE Cu 22Jun2005                  </c></rc>
    <rc><c>   1</c><c>N </c><c>     14.00100000</c><c>      5.00000000</c><c>  PAW_PBE N 08Apr2002                   </c></rc>
    <rc><c>   2</c><c>H </c><c>      1.00000000</c><c>      1.00000000</c><c>  PAW_PBE H 15Jun2001                   </c></rc>
   </set>
  </array>
 </atominfo>
 <structure name="initialpos" >
  <crystal>
   <varray name="basis" >
    <v>      10.11850195       0.00000000       0.00000000 </v>
    <v>      -5.05925097       8.76287974       0.00000000 </v>
    <v>       0.00000000       0.00000000      18.58887505 </v>
   </varray>
   <i name="volume">   1648.22379336 </i>
   <varray name="rec_basis" >
    <v>       0.09882886       0.05705887      -0.00000000 </v>
    <v>       0.00000000       0.11411774      -0.00000000 </v>
    <v>       0.00000000       0.00000000       0.05379562 </v>
   </varray>
  </crystal>
  <varray name="positions" >
   <v>       0.99897919       0.00134834       0.61202890 </v>
   <v>       0.00021600       0.25041067       0.61471980 </v>
   <v>       0.99558120       0.49704650       0.61207499 </v>
   <v>       0.99567700       0.74957456       0.61109056 </v>
   <v>       0.24425896       0.00480009       0.61771541 </v>
   <v>       0.25051981       0.25259022       0.61197487 </v>
   <v>       0.25139955       0.49702882       0.61208801 </v>
   <v>       0.25171957       0.75344558       0.60158889 </v>
   <v>       0.51056396       0.00480484       0.61768620 </v>
   <v>       0.50332374       0.25664178       0.61103195 </v>
   <v>       0.50112329       0.50141587       0.61334837 </v>
   <v>       0.50386696       0.74957000       0.61109416 </v>
   <v>       0.75237148       0.00137663       0.61202777 </v>
   <v>       0.75206495       0.25259844       0.61197297 </v>
   <v>       0.75026455       0.50139432       0.61334749 </v>
   <v>       0.75050399       0.75094043       0.61329256 </v>
   <v>       0.08333535       0.16671059       0.38889148 </v>
   <v>       0.08329684       0.41659326       0.38880872 </v>
   <v>       0.08324354       0.66662851       0.38873048 </v>
   <v>       0.08327422       0.91673155       0.38878459 </v>
   <v>       0.33333281       0.16668958       0.38886514 </v>
   <v>       0.33334809       0.41663014       0.38883794 </v>
   <v>       0.33338527       0.66662850       0.38873044 </v>
   <v>       0.33338990       0.91677985       0.38871267 </v>
   <v>       0.58335698       0.16668847       0.38886516 </v>
   <v>       0.58336764       0.41668268       0.38888436 </v>
   <v>       0.58338430       0.66665940       0.38882993 </v>
   <v>       0.58345920       0.91673156       0.38878458 </v>
   <v>       0.83337555       0.16670953       0.38889160 </v>
   <v>       0.83328408       0.41663008       0.38883801 </v>
   <v>       0.83327594       0.66665940       0.38883011 </v>
   <v>       0.83337161       0.91667097       0.38887627 </v>
   <v>       0.16661106       0.08337393       0.49995505 </v>
   <v>       0.16660834       0.33317385       0.49987332 </v>
   <v>       0.16634798       0.58269386       0.49927835 </v>
   <v>       0.16605135       0.83396939       0.49904215 </v>
   <v>       0.41688947       0.08377902       0.49977113 </v>
   <v>       0.41664008       0.33340476       0.50000806 </v>
   <v>       0.41691424       0.58326606       0.49976107 </v>
   <v>       0.41791861       0.83396986       0.49904167 </v>
   <v>       0.66676350       0.08337370       0.49995493 </v>
   <v>       0.66676521       0.33340483       0.50000845 </v>
   <v>       0.66664283       0.58331601       0.49994300 </v>
   <v>       0.66692375       0.83340967       0.49987179 </v>
   <v>       0.91673347       0.08345076       0.50002496 </v>
   <v>       0.91656583       0.33317328       0.49987345 </v>
   <v>       0.91635132       0.58326635       0.49976117 </v>
   <v>       0.91648512       0.83340829       0.49987254 </v>
   <v>       0.35190228       0.95372088       0.68585755 </v>
   <v>       0.37772324       0.00522712       0.73515682 </v>
   <v>       0.19835585       0.64689068       0.71887423 </v>
  </varray>
 </structure>
 <calculation>
  <scstep>
   <time name="dav">    1.93    2.01</time>
   <time name="total">    1.96    2.05</time>
   <energy>
    <i name="alphaZ">   1044.42981019 </i>
    <i name="ewald"> 153400.00061002 </i>
    <i name="hartreedc">-217578.99090687 </i>
    <i name="XCdc">   2209.86680320 </i>
    <i name="pawpsdc">  59163.12046064 </i>
    <i name="pawaedc"> -64244.73594820 </i>
    <i name="eentropy">      0.00317923 </i>
    <i name="bandstr">   4055.75174517 </i>
    <i name="atom">  67056.38188117 </i>
    <i name="e_fr_energy">   5105.82763455 </i>
    <i name="e_wo_entrp">   5105.82445532 </i>
    <i name="e_0_energy">   5105.82657480 </i>
   </energy>
  </scstep>
  <scstep>
   <time name="dav">    1.83    1.84</time>
   <time name="total">    1.83    1.85</time>
   <energy>
    <i name="e_fr_energy">    567.47897056 </i>
    <i name="e_wo_entrp">    567.48436274 </i>
    <i name="e_0_energy">    567.48076795 </i>
   </energy>
  </scstep>
  <scstep>
   <time name="dav">    1.86    1.87</time>
   <time name="total">    1.86    1.88</time>
   <energy>
    <i name="e_fr_energy">   -149.75044620 </i>
    <i name="e_wo_entrp">   -149.76061449 </i>
    <i name="e_0_energy">   -149.75383563 </i>
   </energy>
  </scstep>
  <scstep>
   <time name="dav">    2.39    2.41</time>
   <time name="total">    2.39    2.41</time>
   <energy>
    <i name="e_fr_energy">   -216.13221559 </i>
    <i name="e_wo_entrp">   -216.10585700 </i>
    <i name="e_0_energy">   -216.12342939 </i>
   </energy>
  </scstep>
  <scstep>
   <time name="dav">    2.55    2.57</time>
   <time name="total">    2.61    2.63</time>
   <energy>
    <i name="e_fr_energy">   -220.55581662 </i>
    <i name="e_wo_entrp">   -220.53700691 </i>
    <i name="e_0_energy">   -220.54954672 </i>
   </energy>
  </scstep>
  <scstep>
   <time name="diag">    0.31    0.32</time>
   <time name="diis">    0.72    0.73</time>
   <time name="orth">    0.09    0.09</time>
   <time name="total">    1.20    1.21</time>
   <energy>
    <i name="e_fr_energy">   -199.65425414 </i>
    <i name="e_wo_entrp">   -199.65902780 </i>
    <i name="e_0_energy">   -199.65584536 </i>
   </energy>
  </scstep>
  <scstep>
   <time name="diag">    0.32    0.32</time>
   <time name="diis">    0.74    0.74</time>
   <time name="orth">    0.09    0.09</time>
   <time name="total">    1.21    1.22</time>
   <energy>
    <i name="e_fr_energy">   -178.53756660 </i>
    <i name="e_wo_entrp">   -178.47390138 </i>
    <i name="e_0_energy">   -178.51634486 </i>
   </energy>
  </scstep>
  <scstep>
   <time name="diag">    0.31    0.31</time>
   <time name="diis">    0.76    0.77</time>
   <time name="orth">    0.09    0.09</time>
   <time name="total">    1.22    1.23</time>
   <energy>
    <i name="e_fr_energy">   -177.25509351 </i>
    <i name="e_wo_entrp">   -177.18570266 </i>
    <i name="e_0_energy">   -177.23196322 </i>
   </energy>
  </scstep>
  <scstep>
   <time name="diag">    0.31    0.31</time>
   <time name="diis">    0.72    0.72</time>
   <time name="orth">    0.09    0.09</time>
   <time name="total">    1.19    1.19</time>
   <energy>
    <i name="e_fr_energy">   -176.95255423 </i>
    <i name="e_wo_entrp">   -176.88426376 </i>
    <i name="e_0_energy">   -176.92979074 </i>
   </energy>
  </scstep>
  <scstep>
   <time name="diag">    0.31    0.31</time>
   <time name="diis">    0.77    0.77</time>
   <time name="orth">    0.09    0.09</time>
   <time name="total">    1.23    1.24</time>
   <energy>
    <i name="e_fr_energy">   -176.83843720 </i>
    <i name="e_wo_entrp">   -176.76233239 </i>
    <i name="e_0_energy">   -176.81306893 </i>
   </energy>
  </scstep>
  <scstep>
   <time name="diag">    0.31    0.31</time>
   <time name="diis">    0.73    0.73</time>
   <time name="orth">    0.09    0.09</time>
   <time name="total">    1.19    1.20</time>
   <energy>
    <i name="e_fr_energy">   -176.80493745 </i>
    <i name="e_wo_entrp">   -176.73972274 </i>
    <i name="e_0_energy">   -176.78319922 </i>
   </energy>
  </scstep>
  <scstep>
   <time name="diag">    0.31    0.31</time>
   <time name="diis">    0.73    0.73</time>
   <time name="orth">    0.09    0.09</time>
   <time name="total">    1.19    1.20</time>
   <energy>
    <i name="e_fr_energy">   -176.79643362 </i>
    <i name="e_wo_entrp">   -176.72702054 </i>
    <i name="e_0_energy">   -176.77329593 </i>
   </energy>
  </scstep>
  <scstep>
   <time name="diag">    0.31    0.31</time>
   <time name="diis">    0.93    0.94</time>
   <time name="orth">    0.09    0.09</time>
   <time name="total">    1.39    1.40</time>
   <energy>
    <i name="e_fr_energy">   -176.77286399 </i>
    <i name="e_wo_entrp">   -176.70194009 </i>
    <i name="e_0_energy">   -176.74922269 </i>
   </energy>
  </scstep>
  <scstep>
   <time name="diag">    0.31    0.31</time>
   <time name="diis">    0.74    0.75</time>
   <time name="orth">    0.09    0.09</time>
   <time name="total">    1.20    1.21</time>
   <energy>
    <i name="e_fr_energy">   -176.76420049 </i>
    <i name="e_wo_entrp">   -176.69196577 </i>
    <i name="e_0_energy">   -176.74012225 </i>
   </energy>
  </scstep>
  <scstep>
   <time name="diag">    0.31    0.31</time>
   <time name="diis">    0.75    0.76</time>
   <time name="orth">    0.09    0.09</time>
   <time name="total">    1.21    1.22</time>
   <energy>
    <i name="e_fr_energy">   -176.76246975 </i>
    <i name="e_wo_entrp">   -176.68984140 </i>
    <i name="e_0_energy">   -176.73826030 </i>
   </energy>
  </scstep>
  <scstep>
   <time name="diag">    0.31    0.31</time>
   <time name="diis">    0.73    0.73</time>
   <time name="orth">    0.09    0.09</time>
   <time name="total">    1.19    1.20</time>
   <energy>
    <i name="e_fr_energy">   -176.75931477 </i>
    <i name="e_wo_entrp">   -176.68680075 </i>
    <i name="e_0_energy">   -176.73514343 </i>
   </energy>
  </scstep>
  <scstep>
   <time name="diag">    0.31    0.31</time>
   <time name="diis">    0.75    0.76</time>
   <time name="orth">    0.09    0.09</time>
   <time name="total">    1.22    1.23</time>
   <energy>
    <i name="e_fr_energy">   -176.75918029 </i>
    <i name="e_wo_entrp">   -176.68681876 </i>
    <i name="e_0_energy">   -176.73505978 </i>
   </energy>
  </scstep>
  <scstep>
   <time name="diag">    0.31    0.31</time>
   <time name="diis">    0.71    0.72</time>
   <time name="orth">    0.09    0.09</time>
   <time name="total">    1.18    1.21</time>
   <energy>
    <i name="e_fr_energy">   -176.75927350 </i>
    <i name="e_wo_entrp">   -176.68702123 </i>
    <i name="e_0_energy">   -176.73518941 </i>
   </energy>
  </scstep>
  <scstep>
   <time name="diag">    0.31    0.31</time>
   <time name="diis">    0.73    0.73</time>
   <time name="orth">    0.10    0.10</time>
   <time name="total">    1.20    1.21</time>
   <energy>
    <i name="e_fr_energy">   -176.76003738 </i>
    <i name="e_wo_entrp">   -176.68795136 </i>
    <i name="e_0_energy">   -176.73600871 </i>
   </energy>
  </scstep>
  <scstep>
   <time name="diag">    0.31    0.31</time>
   <time name="diis">    0.72    0.73</time>
   <time name="orth">    0.09    0.09</time>
   <time name="total">    1.19    1.20</time>
   <energy>
    <i name="e_fr_energy">   -176.76053921 </i>
    <i name="e_wo_entrp">   -176.68843310 </i>
    <i name="e_0_energy">   -176.73650384 </i>
   </energy>
  </scstep>
  <scstep>
   <time name="diag">    0.31    0.31</time>
   <time name="diis">    0.71    0.72</time>
   <time name="orth">    0.09    0.09</time>
   <time name="total">    1.17    1.18</time>
   <energy>
    <i name="e_fr_energy">   -176.76111250 </i>
    <i name="e_wo_entrp">   -176.68901268 </i>
    <i name="e_0_energy">   -176.73707923 </i>
   </energy>
  </scstep>
  <scstep>
   <time name="diag">    0.31    0.31</time>
   <time name="diis">    0.67    0.68</time>
   <time name="orth">    0.09    0.09</time>
   <time name="total">    1.13    1.14</time>
   <energy>
    <i name="e_fr_energy">   -176.76148218 </i>
    <i name="e_wo_entrp">   -176.68938550 </i>
    <i name="e_0_energy">   -176.73744996 </i>
   </energy>
  </scstep>
  <scstep>
   <time name="diag">    0.31    0.31</time>
   <time name="diis">    0.66    0.67</time>
   <time name="orth">    0.09    0.09</time>
   <time name="total">    1.13    1.13</time>
   <energy>
    <i name="e_fr_energy">   -176.76197752 </i>
    <i name="e_wo_entrp">   -176.68995813 </i>
    <i name="e_0_energy">   -176.73797106 </i>
   </energy>
  </scstep>
  <scstep>
   <time name="diag">    0.31    0.31</time>
   <time name="diis">    0.47    0.48</time>
   <time name="orth">    0.09    0.09</time>
   <time name="total">    0.94    0.94</time>
   <energy>
    <i name="e_fr_energy">   -176.76218653 </i>
    <i name="e_wo_entrp">   -176.69014151 </i>
    <i name="e_0_energy">   -176.73817152 </i>
   </energy>
  </scstep>
  <scstep>
   <time name="diag">    0.31    0.31</time>
   <time name="diis">    0.47    0.47</time>
   <time name="orth">    0.09    0.09</time>
   <time name="total">    0.93    0.94</time>
   <energy>
    <i name="e_fr_energy">   -176.76247346 </i>
    <i name="e_wo_entrp">   -176.69037618 </i>
    <i name="e_0_energy">   -176.73844103 </i>
   </energy>
  </scstep>
  <scstep>
   <time name="diag">    0.31    0.31</time>
   <time name="diis">    0.46    0.46</time>
   <time name="orth">    0.09    0.09</time>
   <time name="total">    0.92    0.93</time>
   <energy>
    <i name="e_fr_energy">   -176.76260822 </i>
    <i name="e_wo_entrp">   -176.69053420 </i>
    <i name="e_0_energy">   -176.73858355 </i>
   </energy>
  </scstep>
  <scstep>
   <time name="diag">    0.31    0.31</time>
   <time name="diis">    0.45    0.45</time>
   <time name="orth">    0.09    0.09</time>
   <time name="total">    0.91    0.92</time>
   <energy>
    <i name="e_fr_energy">   -176.76266310 </i>
    <i name="e_wo_entrp">   -176.69058936 </i>
    <i name="e_0_energy">   -176.73863852 </i>
   </energy>
  </scstep>
  <scstep>
   <time name="diag">    0.31    0.31</time>
   <time name="diis">    0.44    0.45</time>
   <time name="orth">    0.09    0.09</time>
   <time name="total">    0.90    0.91</time>
   <energy>
    <i name="e_fr_energy">   -176.76271752 </i>
    <i name="e_wo_entrp">   -176.69065269 </i>
    <i name="e_0_energy">   -176.73869591 </i>
   </energy>
  </scstep>
  <scstep>
   <time name="diag">    0.31    0.31</time>
   <time name="diis">    0.46    0.46</time>
   <time name="orth">    0.09    0.09</time>
   <time name="total">    0.92    0.92</time>
   <energy>
    <i name="e_fr_energy">   -176.76275309 </i>
    <i name="e_wo_entrp">   -176.69068490 </i>
    <i name="e_0_energy">   -176.73873036 </i>
   </energy>
  </scstep>
  <scstep>
   <time name="diag">    0.31    0.31</time>
   <time name="diis">    0.43    0.43</time>
   <time name="orth">    0.09    0.09</time>
   <time name="total">    0.84    0.84</time>
   <energy>
    <i name="alphaZ">   1044.42981019 </i>
    <i name="ewald"> 153400.00061002 </i>
    <i name="hartreedc">-216851.10961930 </i>
    <i name="XCdc">   2162.04613965 </i>
    <i name="pawpsdc">  63284.94356359 </i>
    <i name="pawaedc"> -68459.98641123 </i>
    <i name="eentropy">     -0.07206708 </i>
    <i name="bandstr">  -1813.39666511 </i>
    <i name="atom">  67056.38188117 </i>
    <i name="e_fr_energy">   -176.76275810 </i>
    <i name="e_wo_entrp">   -176.69069102 </i>
    <i name="e_0_energy">   -176.73873574 </i>
   </energy>
  </scstep>
  <structure>
   <crystal>
    <varray name="basis" >
     <v>      10.11850195       0.00000000       0.00000000 </v>
     <v>      -5.05925097       8.76287974       0.00000000 </v>
     <v>       0.00000000       0.00000000      18.58887505 </v>
    </varray>
    <i name="volume">   1648.22379336 </i>
    <varray name="rec_basis" >
     <v>       0.09882886       0.05705887      -0.00000000 </v>
     <v>       0.00000000       0.11411774      -0.00000000 </v>
     <v>       0.00000000       0.00000000       0.05379562 </v>
    </varray>
   </crystal>
   <varray name="positions" >
    <v>       0.99897919       0.00134834       0.61202890 </v>
    <v>       0.00021600       0.25041067       0.61471980 </v>
    <v>       0.99558120       0.49704650       0.61207499 </v>
    <v>       0.99567700       0.74957456       0.61109056 </v>
    <v>       0.24425896       0.00480009       0.61771541 </v>
    <v>       0.25051981       0.25259022       0.61197487 </v>
    <v>       0.25139955       0.49702882       0.61208801 </v>
    <v>       0.25171957       0.75344558       0.60158889 </v>
    <v>       0.51056396       0.00480484       0.61768620 </v>
    <v>       0.50332374       0.25664178       0.61103195 </v>
    <v>       0.50112329       0.50141587       0.61334837 </v>
    <v>       0.50386696       0.74957000       0.61109416 </v>
    <v>       0.75237148       0.00137663       0.61202777 </v>
    <v>       0.75206495       0.25259844       0.61197297 </v>
    <v>       0.75026455       0.50139432       0.61334749 </v>
    <v>       0.75050399       0.75094043       0.61329256 </v>
    <v>       0.08333535       0.16671059       0.38889148 </v>
    <v>       0.08329684       0.41659326       0.38880872 </v>
    <v>       0.08324354       0.66662851       0.38873048 </v>
    <v>       0.08327422       0.91673155       0.38878459 </v>
    <v>       0.33333281       0.16668958       0.38886514 </v>
    <v>       0.33334809       0.41663014       0.38883794 </v>
    <v>       0.33338527       0.66662850       0.38873044 </v>
    <v>       0.33338990       0.91677985       0.38871267 </v>
    <v>       0.58335698       0.16668847       0.38886516 </v>
    <v>       0.58336764       0.41668268       0.38888436 </v>
    <v>       0.58338430       0.66665940       0.38882993 </v>
    <v>       0.58345920       0.91673156       0.38878458 </v>
    <v>       0.83337555       0.16670953       0.38889160 </v>
    <v>       0.83328408       0.41663008       0.38883801 </v>
    <v>       0.83327594       0.66665940       0.38883011 </v>
    <v>       0.83337161       0.91667097       0.38887627 </v>
    <v>       0.16661106       0.08337393       0.49995505 </v>
    <v>       0.16660834       0.33317385       0.49987332 </v>
    <v>       0.16634798       0.58269386       0.49927835 </v>
    <v>       0.16605135       0.83396939       0.49904215 </v>
    <v>       0.41688947       0.08377902       0.49977113 </v>
    <v>       0.41664008       0.33340476       0.50000806 </v>
    <v>       0.41691424       0.58326606       0.49976107 </v>
    <v>       0.41791861       0.83396986       0.49904167 </v>
    <v>       0.66676350       0.08337370       0.49995493 </v>
    <v>       0.66676521       0.33340483       0.50000845 </v>
    <v>       0.66664283       0.58331601       0.49994300 </v>
    <v>       0.66692375       0.83340967       0.49987179 </v>
    <v>       0.91673347       0.08345076       0.50002496 </v>
    <v>       0.91656583       0.33317328       0.49987345 </v>
    <v>       0.91635132       0.58326635       0.49976117 </v>
    <v>       0.91648512       0.83340829       0.49987254 </v>
    <v>       0.35190228       0.95372088       0.68585755 </v>
    <v>       0.37772324       0.00522712       0.73515682 </v>
    <v>       0.19835585       0.64689068       0.71887423 </v>
   </varray>
  </structure>
  <varray name="forces" >
   <v>      -0.05197492       0.01432037       0.01278224 </v>
   <v>      -0.00111886      -0.04485049      -0.09852787 </v>
   <v>       0.37593571       0.38823448       0.42146992 </v>
   <v>       0.08962371       0.00262896       0.05420411 </v>
   <v>       0.21246382      -0.00926619       0.22141252 </v>
   <v>      -0.05060939      -0.01740602       0.02146589 </v>
   <v>      -0.37321019       0.38856507       0.41990289 </v>
   <v>      -0.00024622      -0.39380655       2.41091849 </v>
   <v>      -0.21309686      -0.00965981       0.22206089 </v>
   <v>      -0.00073866      -0.22908212       0.19694379 </v>
   <v>       0.06337405       0.00223134      -0.02585459 </v>
   <v>      -0.08655226       0.00277322       0.05360488 </v>
   <v>       0.05378919       0.01242768       0.01249774 </v>
   <v>       0.05166662      -0.01771015       0.02158707 </v>
   <v>      -0.06394381       0.00307526      -0.02582842 </v>
   <v>      -0.00346915      -0.00998794       0.02052751 </v>
   <v>      -0.00520954      -0.01383534      -0.15645188 </v>
   <v>       0.00009448      -0.03884074      -0.15373361 </v>
   <v>      -0.01456028      -0.02835141      -0.23808629 </v>
   <v>      -0.01713541       0.05454932      -0.22051262 </v>
   <v>      -0.03434688       0.00582456      -0.15846216 </v>
   <v>       0.01841176      -0.00026155      -0.16512544 </v>
   <v>       0.01463432      -0.02833733      -0.23806739 </v>
   <v>       0.00009213      -0.00543293      -0.23655225 </v>
   <v>       0.03464780       0.00538346      -0.15853146 </v>
   <v>      -0.00159059       0.02960826      -0.18616342 </v>
   <v>       0.04284572      -0.01935414      -0.14099750 </v>
   <v>       0.01844675       0.05455322      -0.22047944 </v>
   <v>       0.00565992      -0.01435585      -0.15638109 </v>
   <v>      -0.01730367      -0.00026426      -0.16521907 </v>
   <v>      -0.04225517      -0.01958851      -0.14084846 </v>
   <v>      -0.00229602      -0.00657386      -0.13984364 </v>
   <v>       0.13394063      -0.09013699       0.24203654 </v>
   <v>      -0.08768810       0.02556494       0.14324308 </v>
   <v>      -0.00001371      -0.03056645      -0.05918258 </v>
   <v>      -0.12973252       0.12105684      -0.08140336 </v>
   <v>      -0.00026380      -0.07951095       0.23638916 </v>
   <v>      -0.00575765      -0.01310412       0.08798334 </v>
   <v>      -0.06416952       0.01651536       0.13995451 </v>
   <v>       0.12954480       0.12067155      -0.08169467 </v>
   <v>      -0.13342925      -0.08997281       0.24102535 </v>
   <v>       0.00555371      -0.01295181       0.08798548 </v>
   <v>       0.00087003       0.03191414       0.17577914 </v>
   <v>       0.03278762       0.02276559       0.12997403 </v>
   <v>      -0.00064333       0.03020424       0.08629811 </v>
   <v>       0.08769438       0.02525804       0.14317265 </v>
   <v>       0.06305190       0.01654688       0.13912097 </v>
   <v>      -0.03264322       0.02239705       0.12949568 </v>
   <v>      -0.00087661       0.32614614      -1.52650754 </v>
   <v>      -0.00039728      -0.25331562       0.34066808 </v>
   <v>       0.00014382      -0.24669200      -1.63804931 </v>
  </varray>
  <varray name="stress" >
   <v>       3.35554165      -0.00781132       0.00036339 </v>
   <v>      -0.00781110       1.33028448      -0.66608615 </v>
   <v>       0.00036338      -0.66608609       2.11609567 </v>
  </varray>
  <energy>
   <i name="e_fr_energy">   -176.76275810 </i>
   <i name="e_wo_entrp">   -176.69069102 </i>
   <i name="e_0_energy">   -176.73873574 </i>
  </energy>
  <time name="totalsc">   39.91   40.31</time>
 </calculation>
 <calculation>
  <scstep>
   <time name="dav">    1.92    1.93</time>
   <time name="total">    1.99    2.00</time>
   <energy>
    <i name="alphaZ">   1044.42981019 </i>
    <i name="ewald"> 153400.41060671 </i>
    <i name="hartreedc">-216851.50946761 </i>
    <i name="XCdc">   2162.04679058 </i>
    <i name="pawpsdc">  63284.95637087 </i>
    <i name="pawaedc"> -68460.00325764 </i>
    <i name="eentropy">     -0.07187222 </i>
    <i name="bandstr">  -1813.39996406 </i>
    <i name="atom">  67056.38188117 </i>
    <i name="e_fr_energy">   -176.75910203 </i>
    <i name="e_wo_entrp">   -176.68722980 </i>
    <i name="e_0_energy">   -176.73514462 </i>
   </energy>
  </scstep>
  <scstep>
   <time name="diag">    0.30    0.31</time>
   <time name="diis">    0.71    0.72</time>
   <time name="orth">    0.09    0.09</time>
   <time name="total">    1.17    1.18</time>
   <energy>
    <i name="e_fr_energy">   -176.76046687 </i>
    <i name="e_wo_entrp">   -176.68854727 </i>
    <i name="e_0_energy">   -176.73649367 </i>
   </energy>
  </scstep>
  <scstep>
   <time name="diag">    0.31    0.31</time>
   <time name="diis">    0.98    0.99</time>
   <time name="orth">    0.09    0.09</time>
   <time name="total">    1.44    1.45</time>
   <energy>
    <i name="e_fr_energy">   -176.76116711 </i>
    <i name="e_wo_entrp">   -176.68925664 </i>
    <i name="e_0_energy">   -176.73719696 </i>
   </energy>
  </scstep>
  <scstep>
   <time name="diag">    0.31    0.31</time>
   <time name="diis">    0.73    0.74</time>
   <time name="orth">    0.09    0.09</time>
   <time name="total">    1.19    1.20</time>
   <energy>
    <i name="e_fr_energy">   -176.76115173 </i>
    <i name="e_wo_entrp">   -176.68924313 </i>
    <i name="e_0_energy">   -176.73718219 </i>
   </energy>
  </scstep>
  <scstep>
   <time name="diag">    0.31    0.31</time>
   <time name="diis">    0.61    0.62</time>
   <time name="orth">    0.09    0.09</time>
   <time name="total">    1.07    1.08</time>
   <energy>
    <i name="e_fr_energy">   -176.76112052 </i>
    <i name="e_wo_entrp">   -176.68921644 </i>
    <i name="e_0_energy">   -176.73715249 </i>
   </energy>
  </scstep>
  <scstep>
   <time name="diag">    0.31    0.31</time>
   <time name="diis">    0.77    0.77</time>
   <time name="orth">    0.09    0.09</time>
   <time name="total">    1.23    1.24</time>
   <energy>
    <i name="e_fr_energy">   -176.76109965 </i>
    <i name="e_wo_entrp">   -176.68922391 </i>
    <i name="e_0_energy">   -176.73714107 </i>
   </energy>
  </scstep>
  <scstep>
   <time name="diag">    0.31    0.31</time>
   <time name="diis">    0.53    0.54</time>
   <time name="orth">    0.09    0.09</time>
   <time name="total">    0.94    0.95</time>
   <energy>
    <i name="alphaZ">   1044.42981019 </i>
    <i name="ewald"> 153400.41060671 </i>
    <i name="hartreedc">-216851.51476451 </i>
    <i name="XCdc">   2162.04738044 </i>
    <i name="pawpsdc">  63285.03548720 </i>
    <i name="pawaedc"> -68460.09283097 </i>
    <i name="eentropy">     -0.07190173 </i>
    <i name="bandstr">  -1813.38676601 </i>
    <i name="atom">  67056.38188117 </i>
    <i name="e_fr_energy">   -176.76109751 </i>
    <i name="e_wo_entrp">   -176.68919578 </i>
    <i name="e_0_energy">   -176.73713027 </i>
   </energy>
  </scstep>
  <structure>
   <crystal>
    <varray name="basis" >
     <v>      10.11850195       0.00000000       0.00000000 </v>
     <v>      -5.05925097       8.76287974       0.00000000 </v>
     <v>       0.00000000       0.00000000      18.58887505 </v>
    </varray>
    <i name="volume">   1648.22379336 </i>
    <varray name="rec_basis" >
     <v>       0.09882886       0.05705887      -0.00000000 </v>
     <v>       0.00000000       0.11411774      -0.00000000 </v>
     <v>       0.00000000       0.00000000       0.05379562 </v>
    </varray>
   </crystal>
   <varray name="positions" >
    <v>       1.00046162       0.00134834       0.61202890 </v>
    <v>       0.00021600       0.25041067       0.61471980 </v>
    <v>       0.99558120       0.49704650       0.61207499 </v>
    <v>       0.99567700       0.74957456       0.61109056 </v>
    <v>       0.24425896       0.00480009       0.61771541 </v>
    <v>       0.25051981       0.25259022       0.61197487 </v>
    <v>       0.25139955       0.49702882       0.61208801 </v>
    <v>       0.25171957       0.75344558       0.60158889 </v>
    <v>       0.51056396       0.00480484       0.61768620 </v>
    <v>       0.50332374       0.25664178       0.61103195 </v>
    <v>       0.50112329       0.50141587       0.61334837 </v>
    <v>       0.50386696       0.74957000       0.61109416 </v>
    <v>       0.75237148       0.00137663       0.61202777 </v>
    <v>       0.75206495       0.25259844       0.61197297 </v>
    <v>       0.75026455       0.50139432       0.61334749 </v>
    <v>       0.75050399       0.75094043       0.61329256 </v>
    <v>       0.08333535       0.16671059       0.38889148 </v>
    <v>       0.08329684       0.41659326       0.38880872 </v>
    <v>       0.08324354       0.66662851       0.38873048 </v>
    <v>       0.08327422       0.91673155       0.38878459 </v>
    <v>       0.33333281       0.16668958       0.38886514 </v>
    <v>       0.33334809       0.41663014       0.38883794 </v>
    <v>       0.33338527       0.66662850       0.38873044 </v>
    <v>       0.33338990       0.91677985       0.38871267 </v>
    <v>       0.58335698       0.16668847       0.38886516 </v>
    <v>       0.58336764       0.41668268       0.38888436 </v>
    <v>       0.58338430       0.66665940       0.38882993 </v>
    <v>       0.58345920       0.91673156       0.38878458 </v>
    <v>       0.83337555       0.16670953       0.38889160 </v>
    <v>       0.83328408       0.41663008       0.38883801 </v>
    <v>       0.83327594       0.66665940       0.38883011 </v>
    <v>       0.83337161       0.91667097       0.38887627 </v>
    <v>       0.16661106       0.08337393       0.49995505 </v>
    <v>       0.16660834       0.33317385       0.49987332 </v>
    <v>       0.16634798       0.58269386       0.49927835 </v>
    <v>       0.16605135       0.83396939       0.49904215 </v>
    <v>       0.41688947       0.08377902       0.49977113 </v>
    <v>       0.41664008       0.33340476       0.50000806 </v>
    <v>       0.41691424       0.58326606       0.49976107 </v>
    <v>       0.41791861       0.83396986       0.49904167 </v>
    <v>       0.66676350       0.08337370       0.49995493 </v>
    <v>       0.66676521       0.33340483       0.50000845 </v>
    <v>       0.66664283       0.58331601       0.49994300 </v>
    <v>       0.66692375       0.83340967       0.49987179 </v>
    <v>       0.91673347       0.08345076       0.50002496 </v>
    <v>       0.91656583       0.33317328       0.49987345 </v>
    <v>       0.91635132       0.58326635       0.49976117 </v>
    <v>       0.91648512       0.83340829       0.49987254 </v>
    <v>       0.35190228       0.95372088       0.68585755 </v>
    <v>       0.37772324       0.00522712       0.73515682 </v>
    <v>       0.19835585       0.64689068       0.71887423 </v>
   </varray>
  </structure>
  <varray name="forces" >
   <v>      -0.18275166       0.01639808       0.00779487 </v>
   <v>       0.00595249      -0.05819410      -0.09951624 </v>
   <v>       0.37622700       0.38756146       0.42175432 </v>
   <v>       0.09640209      -0.01105863       0.05541049 </v>
   <v>       0.25493569      -0.00901624       0.22817585 </v>
   <v>      -0.04394120      -0.00514810       0.02319250 </v>
   <v>      -0.37274740       0.38842024       0.41996981 </v>
   <v>       0.00077342      -0.39424385       2.41104077 </v>
   <v>      -0.21333366      -0.00991394       0.22270839 </v>
   <v>       0.00035460      -0.22842481       0.19676506 </v>
   <v>       0.06380521       0.00290392      -0.02583863 </v>
   <v>      -0.08524585       0.00333891       0.05393253 </v>
   <v>       0.08690415       0.01206073       0.01083569 </v>
   <v>       0.05292582      -0.01815205       0.02152318 </v>
   <v>      -0.06350221       0.00295434      -0.02577483 </v>
   <v>       0.00352223       0.00291264       0.01950233 </v>
   <v>      -0.00559956      -0.01394163      -0.15661636 </v>
   <v>      -0.00001512      -0.03838705      -0.15386985 </v>
   <v>      -0.01458338      -0.02795293      -0.23825246 </v>
   <v>      -0.01702761       0.05463473      -0.22053264 </v>
   <v>      -0.03406723       0.00602548      -0.15831598 </v>
   <v>       0.01825617      -0.00067187      -0.16536402 </v>
   <v>       0.01610102      -0.02831289      -0.23822750 </v>
   <v>      -0.00053072      -0.00550036      -0.23673923 </v>
   <v>       0.03531403       0.00499630      -0.15858561 </v>
   <v>      -0.00136266       0.02967157      -0.18667746 </v>
   <v>       0.04312592      -0.01963402      -0.14120750 </v>
   <v>       0.01756498       0.05487089      -0.22044967 </v>
   <v>       0.00607521      -0.01446160      -0.15651856 </v>
   <v>      -0.01687211      -0.00009388      -0.16509487 </v>
   <v>      -0.04289783      -0.01957810      -0.14081353 </v>
   <v>      -0.00164507      -0.00662686      -0.14026322 </v>
   <v>       0.13995029      -0.08612288       0.22967930 </v>
   <v>      -0.08679828       0.02577673       0.14311494 </v>
   <v>       0.00027166      -0.03101826      -0.05873765 </v>
   <v>      -0.12856995       0.12039770      -0.08250992 </v>
   <v>       0.00085529      -0.07966204       0.23588788 </v>
   <v>      -0.00534197      -0.01257388       0.08750211 </v>
   <v>      -0.06389791       0.01704236       0.13978578 </v>
   <v>       0.13056309       0.12060624      -0.08164117 </v>
   <v>      -0.13285207      -0.08965497       0.24133319 </v>
   <v>       0.00524897      -0.01317439       0.08833519 </v>
   <v>       0.00125335       0.03213914       0.17594028 </v>
   <v>       0.03380097       0.02323284       0.13142778 </v>
   <v>       0.00433930       0.02650860       0.09876612 </v>
   <v>       0.08752084       0.02488909       0.14377012 </v>
   <v>       0.06315511       0.01602967       0.13907529 </v>
   <v>      -0.03433242       0.02236937       0.12947776 </v>
   <v>       0.00215969       0.32540962      -1.52746585 </v>
   <v>       0.00028440      -0.25305462       0.34021630 </v>
   <v>       0.00027284      -0.24657673      -1.63790510 </v>
  </varray>
  <varray name="stress" >
   <v>       3.15336611      -0.01002859      -0.00914717 </v>
   <v>      -0.01002834       1.10391940      -0.66881537 </v>
   <v>      -0.00914717      -0.66881537       1.90176341 </v>
  </varray>
  <energy>
   <i name="e_fr_energy">   -176.76109751 </i>
   <i name="e_wo_entrp">   -176.68919578 </i>
   <i name="e_0_energy">   -176.73713027 </i>
  </energy>
  <time name="totalsc">   10.26   10.35</time>
 </calculation>
 <calculation>
  <scstep>
   <time name="dav">    1.87    1.89</time>
   <time name="total">    1.94    1.95</time>
   <energy>
    <i name="alphaZ">   1044.42981019 </i>
    <i name="ewald"> 153400.05842468 </i>
    <i name="hartreedc">-216851.15907451 </i>
    <i name="XCdc">   2162.04701941 </i>
    <i name="pawpsdc">  63285.00810954 </i>
    <i name="pawaedc"> -68460.05730274 </i>
    <i name="eentropy">     -0.07213827 </i>
    <i name="bandstr">  -1813.39489432 </i>
    <i name="atom">  67056.38188117 </i>
    <i name="e_fr_energy">   -176.75816485 </i>
    <i name="e_wo_entrp">   -176.68602659 </i>
    <i name="e_0_energy">   -176.73411876 </i>
   </energy>
  </scstep>
  <scstep>
   <time name="diag">    0.31    0.31</time>
   <time name="diis">    0.73    0.73</time>
   <time name="orth">    0.09    0.09</time>
   <time name="total">    1.19    1.19</time>
   <energy>
    <i name="e_fr_energy">   -176.76098271 </i>
    <i name="e_wo_entrp">   -176.68891514 </i>
    <i name="e_0_energy">   -176.73696019 </i>
   </energy>
  </scstep>
  <scstep>
   <time name="diag">    0.31    0.31</time>
   <time name="diis">    0.99    1.00</time>
   <time name="orth">    0.09    0.09</time>
   <time name="total">    1.46    1.47</time>
   <energy>
    <i name="e_fr_energy">   -176.76240827 </i>
    <i name="e_wo_entrp">   -176.69031514 </i>
    <i name="e_0_energy">   -176.73837722 </i>
   </energy>
  </scstep>
  <scstep>
   <time name="diag">    0.30    0.31</time>
   <time name="diis">    0.73    0.73</time>
   <time name="orth">    0.09    0.09</time>
   <time name="total">    1.19    1.21</time>
   <energy>
    <i name="e_fr_energy">   -176.76237935 </i>
    <i name="e_wo_entrp">   -176.69028600 </i>
    <i name="e_0_energy">   -176.73834824 </i>
   </energy>
  </scstep>
  <scstep>
   <time name="diag">    0.31    0.31</time>
   <time name="diis">    0.70    0.71</time>
   <time name="orth">    0.09    0.09</time>
   <time name="total">    1.16    1.17</time>
   <energy>
    <i name="e_fr_energy">   -176.76231687 </i>
    <i name="e_wo_entrp">   -176.69018579 </i>
    <i name="e_0_energy">   -176.73827318 </i>
   </energy>
  </scstep>
  <scstep>
   <time name="diag">    0.31    0.31</time>
   <time name="diis">    0.80    0.80</time>
   <time name="orth">    0.09    0.09</time>
   <time name="total">    1.26    1.27</time>
   <energy>
    <i name="e_fr_energy">   -176.76225111 </i>
    <i name="e_wo_entrp">   -176.69016748 </i>
    <i name="e_0_energy">   -176.73822323 </i>
   </energy>
  </scstep>
  <scstep>
   <time name="diag">    0.31    0.31</time>
   <time name="diis">    0.66    0.67</time>
   <time name="orth">    0.09    0.09</time>
   <time name="total">    1.07    1.08</time>
   <energy>
    <i name="alphaZ">   1044.42981019 </i>
    <i name="ewald"> 153400.05842468 </i>
    <i name="hartreedc">-216851.21966360 </i>
    <i name="XCdc">   2162.04828473 </i>
    <i name="pawpsdc">  63285.03643839 </i>
    <i name="pawaedc"> -68460.08562459 </i>
    <i name="eentropy">     -0.07212821 </i>
    <i name="bandstr">  -1813.33966932 </i>
    <i name="atom">  67056.38188117 </i>
    <i name="e_fr_energy">   -176.76224657 </i>
    <i name="e_wo_entrp">   -176.69011836 </i>
    <i name="e_0_energy">   -176.73820383 </i>
   </energy>
  </scstep>
  <structure>
   <crystal>
    <varray name="basis" >
     <v>      10.11850195       0.00000000       0.00000000 </v>
     <v>      -5.05925097       8.76287974       0.00000000 </v>
     <v>       0.00000000       0.00000000      18.58887505 </v>
    </varray>
    <i name="volume">   1648.22379336 </i>
    <varray name="rec_basis" >
     <v>       0.09882886       0.05705887      -0.00000000 </v>
     <v>       0.00000000       0.11411774      -0.00000000 </v>
     <v>       0.00000000       0.00000000       0.05379562 </v>
    </varray>
   </crystal>
   <varray name="positions" >
    <v>       0.99983507       0.00306010       0.61202890 </v>
    <v>       0.00021600       0.25041067       0.61471980 </v>
    <v>       0.99558120       0.49704650       0.61207499 </v>
    <v>       0.99567700       0.74957456       0.61109056 </v>
    <v>       0.24425896       0.00480009       0.61771541 </v>
    <v>       0.25051981       0.25259022       0.61197487 </v>
    <v>       0.25139955       0.49702882       0.61208801 </v>
    <v>       0.25171957       0.75344558       0.60158889 </v>
    <v>       0.51056396       0.00480484       0.61768620 </v>
    <v>       0.50332374       0.25664178       0.61103195 </v>
    <v>       0.50112329       0.50141587       0.61334837 </v>
    <v>       0.50386696       0.74957000       0.61109416 </v>
    <v>       0.75237148       0.00137663       0.61202777 </v>
    <v>       0.75206495       0.25259844       0.61197297 </v>
    <v>       0.75026455       0.50139432       0.61334749 </v>
    <v>       0.75050399       0.75094043       0.61329256 </v>
    <v>       0.08333535       0.16671059       0.38889148 </v>
    <v>       0.08329684       0.41659326       0.38880872 </v>
    <v>       0.08324354       0.66662851       0.38873048 </v>
    <v>       0.08327422       0.91673155       0.38878459 </v>
    <v>       0.33333281       0.16668958       0.38886514 </v>
    <v>       0.33334809       0.41663014       0.38883794 </v>
    <v>       0.33338527       0.66662850       0.38873044 </v>
    <v>       0.33338990       0.91677985       0.38871267 </v>
    <v>       0.58335698       0.16668847       0.38886516 </v>
    <v>       0.58336764       0.41668268       0.38888436 </v>
    <v>       0.58338430       0.66665940       0.38882993 </v>
    <v>       0.58345920       0.91673156       0.38878458 </v>
    <v>       0.83337555       0.16670953       0.38889160 </v>
    <v>       0.83328408       0.41663008       0.38883801 </v>
    <v>       0.83327594       0.66665940       0.38883011 </v>
    <v>       0.83337161       0.91667097       0.38887627 </v>
    <v>       0.16661106       0.08337393       0.49995505 </v>
    <v>       0.16660834       0.33317385       0.49987332 </v>
    <v>       0.16634798       0.58269386       0.49927835 </v>
    <v>       0.16605135       0.83396939       0.49904215 </v>
    <v>       0.41688947       0.08377902       0.49977113 </v>
    <v>       0.41664008       0.33340476       0.50000806 </v>
    <v>       0.41691424       0.58326606       0.49976107 </v>
    <v>       0.41791861       0.83396986       0.49904167 </v>
    <v>       0.66676350       0.08337370       0.49995493 </v>
    <v>       0.66676521       0.33340483       0.50000845 </v>
    <v>       0.66664283       0.58331601       0.49994300 </v>
    <v>       0.66692375       0.83340967       0.49987179 </v>
    <v>       0.91673347       0.08345076       0.50002496 </v>
    <v>       0.91656583       0.33317328       0.49987345 </v>
    <v>       0.91635132       0.58326635       0.49976117 </v>
    <v>       0.91648512       0.83340829       0.49987254 </v>
    <v>       0.35190228       0.95372088       0.68585755 </v>
    <v>       0.37772324       0.00522712       0.73515682 </v>
    <v>       0.19835585       0.64689068       0.71887423 </v>
   </varray>
  </structure>
  <varray name="forces" >
   <v>      -0.03643530      -0.09747375       0.01535506 </v>
   <v>      -0.01636832      -0.02042335      -0.09581127 </v>
   <v>       0.37491201       0.38990012       0.42154354 </v>
   <v>       0.07747684       0.02333743       0.05198955 </v>
   <v>       0.21383020      -0.00941353       0.22227901 </v>
   <v>      -0.03835484       0.00339055       0.02387038 </v>
   <v>      -0.37375475       0.39009043       0.41986075 </v>
   <v>      -0.00133357      -0.39317132       2.41124202 </v>
   <v>      -0.21443354      -0.00992958       0.22280744 </v>
   <v>      -0.00081187      -0.22877404       0.19713270 </v>
   <v>       0.06391228       0.00348919      -0.02589783 </v>
   <v>      -0.08660730       0.00348634       0.05387215 </v>
   <v>       0.05338087       0.01164870       0.01259017 </v>
   <v>       0.05066282      -0.01708079       0.02152804 </v>
   <v>      -0.06399341       0.00418038      -0.02589426 </v>
   <v>       0.00860028       0.01130188       0.01812239 </v>
   <v>      -0.00559761      -0.01367316      -0.15653933 </v>
   <v>       0.00041280      -0.03944533      -0.15431305 </v>
   <v>      -0.01433354      -0.02863821      -0.23797401 </v>
   <v>      -0.01733174       0.05447504      -0.22059987 </v>
   <v>      -0.03437090       0.00576878      -0.15832349 </v>
   <v>       0.01777579      -0.00054459      -0.16533233 </v>
   <v>       0.01427779      -0.02666540      -0.23817962 </v>
   <v>      -0.00031285      -0.00525118      -0.23669976 </v>
   <v>       0.03423804       0.00573970      -0.15885426 </v>
   <v>      -0.00179080       0.02998332      -0.18588364 </v>
   <v>       0.04241970      -0.01959816      -0.14075752 </v>
   <v>       0.01832932       0.05464233      -0.22050666 </v>
   <v>       0.00528179      -0.01386936      -0.15640986 </v>
   <v>      -0.01771211       0.00001669      -0.16500874 </v>
   <v>      -0.04241849      -0.01886325      -0.14085532 </v>
   <v>      -0.00249128      -0.00660917      -0.14016616 </v>
   <v>       0.13755152      -0.08932751       0.23516863 </v>
   <v>      -0.08804972       0.02735591       0.14148581 </v>
   <v>      -0.00096360      -0.02983175      -0.05871197 </v>
   <v>      -0.13035663       0.12236111      -0.08082436 </v>
   <v>      -0.00051490      -0.07968628       0.23651688 </v>
   <v>      -0.00563220      -0.01238374       0.08740134 </v>
   <v>      -0.06362854       0.01735233       0.14026271 </v>
   <v>       0.12943380       0.12040708      -0.08207755 </v>
   <v>      -0.13409239      -0.09005626       0.24097721 </v>
   <v>       0.00508330      -0.01282395       0.08791439 </v>
   <v>       0.00141029       0.03276110       0.17663618 </v>
   <v>       0.03284951       0.02375942       0.13050583 </v>
   <v>      -0.00505014       0.03072760       0.07856199 </v>
   <v>       0.08696957       0.02556292       0.14264934 </v>
   <v>       0.06254456       0.01693596       0.13972503 </v>
   <v>      -0.03259436       0.02877291       0.14229436 </v>
   <v>      -0.00121133       0.32606157      -1.52967676 </v>
   <v>      -0.00091493      -0.25318847       0.34082806 </v>
   <v>       0.00010790      -0.24678666      -1.63782336 </v>
  </varray>
  <varray name="stress" >
   <v>       3.16223260      -0.01265302       0.00001032 </v>
   <v>      -0.01265276       1.13949507      -0.68355984 </v>
   <v>       0.00001035      -0.68355986       1.91670992 </v>
  </varray>
  <energy>
   <i name="e_fr_energy">   -176.76224657 </i>
   <i name="e_wo_entrp">   -176.69011836 </i>
   <i name="e_0_energy">   -176.73820383 </i>
  </energy>
  <time name="totalsc">   10.50   10.60</time>
 </calculation>
 <calculation>
  <scstep>
   <time name="dav">    1.86    1.87</time>
   <time name="total">    1.93    1.94</time>
   <energy>
    <i name="alphaZ">   1044.42981019 </i>
    <i name="ewald"> 153361.46537624 </i>
    <i name="hartreedc">-216812.78812730 </i>
    <i name="XCdc">   2162.02661272 </i>
    <i name="pawpsdc">  63284.99470019 </i>
    <i name="pawaedc"> -68460.03774399 </i>
    <i name="eentropy">     -0.07187253 </i>
    <i name="bandstr">  -1813.15930192 </i>
    <i name="atom">  67056.38188117 </i>
    <i name="e_fr_energy">   -176.75866524 </i>
    <i name="e_wo_entrp">   -176.68679271 </i>
    <i name="e_0_energy">   -176.73470773 </i>
   </energy>
  </scstep>
  <scstep>
   <time name="diag">    0.31    0.31</time>
   <time name="diis">    0.72    0.72</time>
   <time name="orth">    0.09    0.09</time>
   <time name="total">    1.18    1.19</time>
   <energy>
    <i name="e_fr_energy">   -176.76130916 </i>
    <i name="e_wo_entrp">   -176.68925745 </i>
    <i name="e_0_energy">   -176.73729192 </i>
   </energy>
  </scstep>
  <scstep>
   <time name="diag">    0.31    0.31</time>
   <time name="diis">    1.00    1.00</time>
   <time name="orth">    0.09    0.09</time>
   <time name="total">    1.45    1.47</time>
   <energy>
    <i name="e_fr_energy">   -176.76267798 </i>
    <i name="e_wo_entrp">   -176.69077392 </i>
    <i name="e_0_energy">   -176.73870996 </i>
   </energy>
  </scstep>
  <scstep>
   <time name="diag">    0.30    0.31</time>
   <time name="diis">    0.88    0.89</time>
   <time name="orth">    0.09    0.09</time>
   <time name="total">    1.34    1.35</time>
   <energy>
    <i name="e_fr_energy">   -176.76262179 </i>
    <i name="e_wo_entrp">   -176.69065833 </i>
    <i name="e_0_energy">   -176.73863397 </i>
   </energy>
  </scstep>
  <scstep>
   <time name="diag">    0.31    0.31</time>
   <time name="diis">    0.62    0.63</time>
   <time name="orth">    0.09    0.09</time>
   <time name="total">    1.08    1.09</time>
   <energy>
    <i name="e_fr_energy">   -176.76257393 </i>
    <i name="e_wo_entrp">   -176.69066811 </i>
    <i name="e_0_energy">   -176.73860532 </i>
   </energy>
  </scstep>
  <scstep>
   <time name="diag">    0.30    0.31</time>
   <time name="diis">    0.88    0.89</time>
   <time name="orth">    0.09    0.09</time>
   <time name="total">    1.34    1.35</time>
   <energy>
    <i name="e_fr_energy">   -176.76251951 </i>
    <i name="e_wo_entrp">   -176.69047864 </i>
    <i name="e_0_energy">   -176.73850589 </i>
   </energy>
  </scstep>
  <scstep>
   <time name="diag">    0.31    0.31</time>
   <time name="diis">    0.69    0.70</time>
   <time name="orth">    0.09    0.09</time>
   <time name="total">    1.15    1.16</time>
   <energy>
    <i name="e_fr_energy">   -176.76250692 </i>
    <i name="e_wo_entrp">   -176.69056643 </i>
    <i name="e_0_energy">   -176.73852676 </i>
   </energy>
  </scstep>
  <scstep>
   <time name="diag">    0.31    0.31</time>
   <time name="diis">    0.45    0.45</time>
   <time name="orth">    0.09    0.09</time>
   <time name="total">    0.85    0.86</time>
   <energy>
    <i name="alphaZ">   1044.42981019 </i>
    <i name="ewald"> 153361.46537624 </i>
    <i name="hartreedc">-216812.64321935 </i>
    <i name="XCdc">   2162.02996519 </i>
    <i name="pawpsdc">  63282.32403082 </i>
    <i name="pawaedc"> -68457.33206075 </i>
    <i name="eentropy">     -0.07197393 </i>
    <i name="bandstr">  -1813.34631256 </i>
    <i name="atom">  67056.38188117 </i>
    <i name="e_fr_energy">   -176.76250298 </i>
    <i name="e_wo_entrp">   -176.69052905 </i>
    <i name="e_0_energy">   -176.73851167 </i>
   </energy>
  </scstep>
  <structure>
   <crystal>
    <varray name="basis" >
     <v>      10.11850195       0.00000000       0.00000000 </v>
     <v>      -5.05925097       8.76287974       0.00000000 </v>
     <v>       0.00000000       0.00000000      18.58887505 </v>
    </varray>
    <i name="volume">   1648.22379336 </i>
    <varray name="rec_basis" >
     <v>       0.09882886       0.05705887      -0.00000000 </v>
     <v>       0.00000000       0.11411774      -0.00000000 </v>
     <v>       0.00000000       0.00000000       0.05379562 </v>
    </varray>
   </crystal>
   <varray name="positions" >
    <v>       0.99897919       0.00134834       0.61283583 </v>
    <v>       0.00021600       0.25041067       0.61471980 </v>
    <v>       0.99558120       0.49704650       0.61207499 </v>
    <v>       0.99567700       0.74957456       0.61109056 </v>
    <v>       0.24425896       0.00480009       0.61771541 </v>
    <v>       0.25051981       0.25259022       0.61197487 </v>
    <v>       0.25139955       0.49702882       0.61208801 </v>
    <v>       0.25171957       0.75344558       0.60158889 </v>
    <v>       0.51056396       0.00480484       0.61768620 </v>
    <v>       0.50332374       0.25664178       0.61103195 </v>
    <v>       0.50112329       0.50141587       0.61334837 </v>
    <v>       0.50386696       0.74957000       0.61109416 </v>
    <v>       0.75237148       0.00137663       0.61202777 </v>
    <v>       0.75206495       0.25259844       0.61197297 </v>
    <v>       0.75026455       0.50139432       0.61334749 </v>
    <v>       0.75050399       0.75094043       0.61329256 </v>
    <v>       0.08333535       0.16671059       0.38889148 </v>
    <v>       0.08329684       0.41659326       0.38880872 </v>
    <v>       0.08324354       0.66662851       0.38873048 </v>
    <v>       0.08327422       0.91673155       0.38878459 </v>
    <v>       0.33333281       0.16668958       0.38886514 </v>
    <v>       0.33334809       0.41663014       0.38883794 </v>
    <v>       0.33338527       0.66662850       0.38873044 </v>
    <v>       0.33338990       0.91677985       0.38871267 </v>
    <v>       0.58335698       0.16668847       0.38886516 </v>
    <v>       0.58336764       0.41668268       0.38888436 </v>
    <v>       0.58338430       0.66665940       0.38882993 </v>
    <v>       0.58345920       0.91673156       0.38878458 </v>
    <v>       0.83337555       0.16670953       0.38889160 </v>
    <v>       0.83328408       0.41663008       0.38883801 </v>
    <v>       0.83327594       0.66665940       0.38883011 </v>
    <v>       0.83337161       0.91667097       0.38887627 </v>
    <v>       0.16661106       0.08337393       0.49995505 </v>
    <v>       0.16660834       0.33317385       0.49987332 </v>
    <v>       0.16634798       0.58269386       0.49927835 </v>
    <v>       0.16605135       0.83396939       0.49904215 </v>
    <v>       0.41688947       0.08377902       0.49977113 </v>
    <v>       0.41664008       0.33340476       0.50000806 </v>
    <v>       0.41691424       0.58326606       0.49976107 </v>
    <v>       0.41791861       0.83396986       0.49904167 </v>
    <v>       0.66676350       0.08337370       0.49995493 </v>
    <v>       0.66676521       0.33340483       0.50000845 </v>
    <v>       0.66664283       0.58331601       0.49994300 </v>
    <v>       0.66692375       0.83340967       0.49987179 </v>
    <v>       0.91673347       0.08345076       0.50002496 </v>
    <v>       0.91656583       0.33317328       0.49987345 </v>
    <v>       0.91635132       0.58326635       0.49976117 </v>
    <v>       0.91648512       0.83340829       0.49987254 </v>
    <v>       0.35190228       0.95372088       0.68585755 </v>
    <v>       0.37772324       0.00522712       0.73515682 </v>
    <v>       0.19835585       0.64689068       0.71887423 </v>
   </varray>
  </structure>
  <varray name="forces" >
   <v>      -0.05810328       0.01642340      -0.04627718 </v>
   <v>      -0.00014816      -0.04574621      -0.09711809 </v>
   <v>       0.37559782       0.38820450       0.42101454 </v>
   <v>       0.08786917       0.00499605       0.05510559 </v>
   <v>       0.21354685      -0.00869963       0.22030184 </v>
   <v>      -0.05142852      -0.01909369       0.02306945 </v>
   <v>      -0.37302907       0.38814112       0.41995571 </v>
   <v>       0.00000099      -0.39397823       2.41051843 </v>
   <v>      -0.21395275      -0.00963332       0.22185815 </v>
   <v>      -0.00041119      -0.22898314       0.19734435 </v>
   <v>       0.06336413       0.00220254      -0.02600273 </v>
   <v>      -0.08593066       0.00251343       0.05348782 </v>
   <v>       0.05532794       0.01221912       0.01395170 </v>
   <v>       0.05165246      -0.01736355       0.02171841 </v>
   <v>      -0.06394629       0.00267201      -0.02569031 </v>
   <v>      -0.00210289      -0.00842401       0.02168061 </v>
   <v>      -0.00538801      -0.01412031      -0.15606660 </v>
   <v>       0.00004031      -0.03917884      -0.15422257 </v>
   <v>      -0.01500857      -0.02809037      -0.23852121 </v>
   <v>      -0.01664628       0.05458801      -0.22040061 </v>
   <v>      -0.03434035       0.00562814      -0.15933572 </v>
   <v>       0.01865017      -0.00028644      -0.16555890 </v>
   <v>       0.01483321      -0.02825023      -0.23732376 </v>
   <v>      -0.00001425      -0.00515602      -0.23722926 </v>
   <v>       0.03456003       0.00494970      -0.15829164 </v>
   <v>      -0.00166942       0.02969418      -0.18601949 </v>
   <v>       0.04321673      -0.01909191      -0.14147900 </v>
   <v>       0.01862689       0.05456358      -0.22108492 </v>
   <v>       0.00582676      -0.01422262      -0.15715901 </v>
   <v>      -0.01702072      -0.00028032      -0.16505619 </v>
   <v>      -0.04272656      -0.01990214      -0.14134797 </v>
   <v>      -0.00201343      -0.00678620      -0.13954836 </v>
   <v>       0.12339747      -0.09605523       0.25968553 </v>
   <v>      -0.08787075       0.02602124       0.14320016 </v>
   <v>       0.00007408      -0.03046197      -0.05905723 </v>
   <v>      -0.13015647       0.12085245      -0.08138177 </v>
   <v>      -0.00040164      -0.08003187       0.23682062 </v>
   <v>      -0.00605584      -0.01351113       0.08828394 </v>
   <v>      -0.06412454       0.01669237       0.14016481 </v>
   <v>       0.12937980       0.12072877      -0.08187089 </v>
   <v>      -0.13273699      -0.09023435       0.24139659 </v>
   <v>       0.00579789      -0.01302672       0.08755370 </v>
   <v>       0.00101714       0.03271386       0.17617400 </v>
[...]
       <r>    4.4387    0.0000 </r>
       <r>    4.5365    0.0000 </r>
       <r>    4.5484    0.0000 </r>
       <r>    4.6189    0.0000 </r>
       <r>    4.6493    0.0000 </r>
       <r>    4.9493    0.0000 </r>
       <r>    4.9995    0.0000 </r>
       <r>    5.0384    0.0000 </r>
       <r>    5.0808    0.0000 </r>
       <r>    5.0888    0.0000 </r>
       <r>    5.1329    0.0000 </r>
       <r>    5.2095    0.0000 </r>
       <r>    5.3186    0.0000 </r>
       <r>    5.4512    0.0000 </r>
       <r>    5.6206    0.0000 </r>
       <r>    5.6249    0.0000 </r>
       <r>    5.7482    0.0000 </r>
       <r>    5.8234    0.0000 </r>
       <r>    5.8383    0.0000 </r>
       <r>    5.8930    0.0000 </r>
       <r>    5.9205    0.0000 </r>
       <r>    5.9343    0.0000 </r>
       <r>    5.9359    0.0000 </r>
      </set>
     </set>
    </set>
   </array>
  </eigenvalues>
  <separator name="orbital magnetization" >
   <v name="MAGDIPOLOUT">      0.00000000      0.00000000      0.00000000</v>
  </separator>
  <dos>
   <i name="efermi">     -0.45472659 </i>
   <total>
    <array>
     <dimension dim="1">gridpoints</dimension>
     <dimension dim="2">spin</dimension>
     <field>energy</field>
     <field>total</field>
     <field>integrated</field>
     <set>
      <set comment="spin 1">
       <r>   -16.5578     0.0000     0.0000 </r>
       <r>   -16.4778     0.0000     0.0000 </r>
       <r>   -16.3978     0.0000     0.0000 </r>
       <r>   -16.3178    -0.0000    -0.0000 </r>
       <r>   -16.2379    -0.0000    -0.0000 </r>
       <r>   -16.1579    -0.0000    -0.0000 </r>
       <r>   -16.0779    -0.0000    -0.0000 </r>
       <r>   -15.9980    -0.0000    -0.0000 </r>
       <r>   -15.9180    -0.0000    -0.0000 </r>
       <r>   -15.8380    -0.0000    -0.0000 </r>
       <r>   -15.7580    -0.0038    -0.0003 </r>
       <r>   -15.6781    -0.1346    -0.0111 </r>
       <r>   -15.5981    -0.7239    -0.0690 </r>
       <r>   -15.5181     3.9821     0.2495 </r>
       <r>   -15.4381    15.2501     1.4691 </r>
       <r>   -15.3582     7.4416     2.0642 </r>
       <r>   -15.2782    -0.5226     2.0225 </r>
       <r>   -15.1982    -0.2689     2.0010 </r>
       <r>   -15.1182    -0.0118     2.0000 </r>
       <r>   -15.0383    -0.0001     2.0000 </r>
       <r>   -14.9583    -0.0000     2.0000 </r>
       <r>   -14.8783    -0.0000     2.0000 </r>
       <r>   -14.7983    -0.0000     2.0000 </r>
       <r>   -14.7184     0.0000     2.0000 </r>
       <r>   -14.6384     0.0000     2.0000 </r>
       <r>   -14.5584     0.0000     2.0000 </r>
       <r>   -14.4784     0.0000     2.0000 </r>
       <r>   -14.3985     0.0000     2.0000 </r>
       <r>   -14.3185     0.0000     2.0000 </r>
       <r>   -14.2385     0.0000     2.0000 </r>
       <r>   -14.1586     0.0000     2.0000 </r>
       <r>   -14.0786     0.0000     2.0000 </r>
       <r>   -13.9986     0.0000     2.0000 </r>
       <r>   -13.9186     0.0000     2.0000 </r>
       <r>   -13.8387     0.0000     2.0000 </r>
       <r>   -13.7587     0.0000     2.0000 </r>
       <r>   -13.6787     0.0000     2.0000 </r>
       <r>   -13.5987     0.0000     2.0000 </r>
       <r>   -13.5188     0.0000     2.0000 </r>
       <r>   -13.4388     0.0000     2.0000 </r>
       <r>   -13.3588     0.0000     2.0000 </r>
       <r>   -13.2788     0.0000     2.0000 </r>
       <r>   -13.1989     0.0000     2.0000 </r>
       <r>   -13.1189     0.0000     2.0000 </r>
       <r>   -13.0389     0.0000     2.0000 </r>
       <r>   -12.9589     0.0000     2.0000 </r>
       <r>   -12.8790     0.0000     2.0000 </r>
       <r>   -12.7990     0.0000     2.0000 </r>
       <r>   -12.7190     0.0000     2.0000 </r>
       <r>   -12.6390     0.0000     2.0000 </r>
       <r>   -12.5591     0.0000     2.0000 </r>
       <r>   -12.4791     0.0000     2.0000 </r>
       <r>   -12.3991     0.0000     2.0000 </r>
       <r>   -12.3192     0.0000     2.0000 </r>
       <r>   -12.2392     0.0000     2.0000 </r>
       <r>   -12.1592     0.0000     2.0000 </r>
       <r>   -12.0792     0.0000     2.0000 </r>
       <r>   -11.9993     0.0000     2.0000 </r>
       <r>   -11.9193     0.0000     2.0000 </r>
       <r>   -11.8393     0.0000     2.0000 </r>
       <r>   -11.7593     0.0000     2.0000 </r>
       <r>   -11.6794     0.0000     2.0000 </r>
       <r>   -11.5994     0.0000     2.0000 </r>
       <r>   -11.5194     0.0000     2.0000 </r>
       <r>   -11.4394     0.0000     2.0000 </r>
       <r>   -11.3595     0.0000     2.0000 </r>
       <r>   -11.2795     0.0000     2.0000 </r>
       <r>   -11.1995     0.0000     2.0000 </r>
       <r>   -11.1195     0.0000     2.0000 </r>
       <r>   -11.0396     0.0000     2.0000 </r>
       <r>   -10.9596     0.0000     2.0000 </r>
       <r>   -10.8796     0.0000     2.0000 </r>
       <r>   -10.7996     0.0000     2.0000 </r>
       <r>   -10.7197     0.0000     2.0000 </r>
       <r>   -10.6397     0.0000     2.0000 </r>
       <r>   -10.5597     0.0000     2.0000 </r>
       <r>   -10.4798     0.0000     2.0000 </r>
       <r>   -10.3998     0.0000     2.0000 </r>
       <r>   -10.3198     0.0000     2.0000 </r>
       <r>   -10.2398     0.0000     2.0000 </r>
       <r>   -10.1599     0.0000     2.0000 </r>
       <r>   -10.0799    -0.0000     2.0000 </r>
       <r>    -9.9999    -0.0000     2.0000 </r>
       <r>    -9.9199    -0.0000     2.0000 </r>
       <r>    -9.8400    -0.0000     2.0000 </r>
       <r>    -9.7600    -0.0000     2.0000 </r>
       <r>    -9.6800    -0.0000     2.0000 </r>
       <r>    -9.6000    -0.0000     2.0000 </r>
       <r>    -9.5201    -0.0016     1.9999 </r>
       <r>    -9.4401    -0.0333     1.9972 </r>
       <r>    -9.3601    -0.0477     1.9934 </r>
       <r>    -9.2801     0.8804     2.0638 </r>
       <r>    -9.2002     1.3653     2.1730 </r>
       <r>    -9.1202     0.5857     2.2198 </r>
       <r>    -9.0402     7.2810     2.8021 </r>
       <r>    -8.9602     8.8744     3.5118 </r>
       <r>    -8.8803     0.9866     3.5907 </r>
       <r>    -8.8003    -0.5279     3.5485 </r>
       <r>    -8.7203    -0.4447     3.5130 </r>
       <r>    -8.6404     3.4589     3.7896 </r>
       <r>    -8.5604     9.7593     4.5701 </r>
       <r>    -8.4804     4.2082     4.9066 </r>
       <r>    -8.4004     6.2966     5.4102 </r>
       <r>    -8.3205     9.2324     6.1485 </r>
       <r>    -8.2405     1.4131     6.2615 </r>
       <r>    -8.1605    -0.4385     6.2265 </r>
       <r>    -8.0805    -0.0593     6.2217 </r>
       <r>    -8.0006    -0.1891     6.2066 </r>
       <r>    -7.9206    -0.7133     6.1496 </r>
       <r>    -7.8406     4.8976     6.5412 </r>
       <r>    -7.7606    17.9685     7.9782 </r>
       <r>    -7.6807    12.5158     8.9792 </r>
       <r>    -7.6007     1.7694     9.1207 </r>
       <r>    -7.5207    -1.1258     9.0307 </r>
       <r>    -7.4407     4.1500     9.3626 </r>
       <r>    -7.3608    21.1592    11.0547 </r>
       <r>    -7.2808    14.4543    12.2107 </r>
       <r>    -7.2008     0.7396    12.2699 </r>
       <r>    -7.1208    -0.5490    12.2260 </r>
       <r>    -7.0409    -0.4184    12.1925 </r>
       <r>    -6.9609    -0.2059    12.1760 </r>
       <r>    -6.8809     8.2547    12.8362 </r>
       <r>    -6.8010    17.5256    14.2378 </r>
       <r>    -6.7210    13.0197    15.2790 </r>
       <r>    -6.6410    22.7123    17.0954 </r>
       <r>    -6.5610    19.2035    18.6312 </r>
       <r>    -6.4811     0.7436    18.6907 </r>
       <r>    -6.4011     1.3029    18.7949 </r>
       <r>    -6.3211    11.2223    19.6923 </r>
       <r>    -6.2411    16.2434    20.9914 </r>
       <r>    -6.1612     9.7474    21.7709 </r>
       <r>    -6.0812    -0.0186    21.7694 </r>
       <r>    -6.0012     3.5082    22.0500 </r>
       <r>    -5.9212     9.2019    22.7859 </r>
       <r>    -5.8413    10.9944    23.6652 </r>
       <r>    -5.7613    31.8166    26.2097 </r>
       <r>    -5.6813    40.8888    29.4797 </r>
       <r>    -5.6013    23.2081    31.3358 </r>
       <r>    -5.5214    17.4285    32.7296 </r>
       <r>    -5.4414    11.1358    33.6202 </r>
       <r>    -5.3614    12.9603    34.6566 </r>
       <r>    -5.2814    51.8557    38.8038 </r>
       <r>    -5.2015    51.9866    42.9613 </r>
       <r>    -5.1215    50.4214    46.9937 </r>
       <r>    -5.0415    73.0401    52.8350 </r>
       <r>    -4.9616    60.5412    57.6767 </r>
       <r>    -4.8816    47.5467    61.4792 </r>
       <r>    -4.8016    49.8281    65.4642 </r>
       <r>    -4.7216    65.9809    70.7409 </r>
       <r>    -4.6417   103.5326    79.0208 </r>
       <r>    -4.5617   102.9742    87.2561 </r>
       <r>    -4.4817    89.7390    94.4329 </r>
       <r>    -4.4017    88.7797   101.5329 </r>
       <r>    -4.3218    91.4004   108.8426 </r>
       <r>    -4.2418    75.9576   114.9172 </r>
       <r>    -4.1618    84.6980   121.6908 </r>
       <r>    -4.0818    68.2986   127.1529 </r>
       <r>    -4.0019    87.2078   134.1273 </r>
       <r>    -3.9219   160.1960   146.9388 </r>
       <r>    -3.8419   136.8161   157.8805 </r>
       <r>    -3.7619    86.2075   164.7748 </r>
       <r>    -3.6820    97.8314   172.5988 </r>
       <r>    -3.6020   151.2139   184.6920 </r>
       <r>    -3.5220   171.0123   198.3685 </r>
       <r>    -3.4420   140.4523   209.6010 </r>
       <r>    -3.3621   180.0595   224.0010 </r>
       <r>    -3.2821   219.2267   241.5335 </r>
       <r>    -3.2021   231.6177   260.0568 </r>
       <r>    -3.1222   233.8961   278.7624 </r>
       <r>    -3.0422   199.5320   294.7198 </r>
       <r>    -2.9622   132.9912   305.3556 </r>
       <r>    -2.8822   111.9070   314.3052 </r>
       <r>    -2.8023   128.4436   324.5774 </r>
       <r>    -2.7223   164.5356   337.7359 </r>
       <r>    -2.6423   220.4180   355.3636 </r>
       <r>    -2.5623   240.1112   374.5662 </r>
       <r>    -2.4824   187.0333   389.5240 </r>
       <r>    -2.4024   156.1982   402.0158 </r>
       <r>    -2.3224   161.9953   414.9712 </r>
       <r>    -2.2424   193.7722   430.4679 </r>
       <r>    -2.1625   250.6358   450.5122 </r>
       <r>    -2.0825   306.9833   475.0629 </r>
       <r>    -2.0025   241.1216   494.3463 </r>
       <r>    -1.9225    99.4243   502.2976 </r>
       <r>    -1.8426    53.4863   506.5752 </r>
       <r>    -1.7626    36.1744   509.4682 </r>
       <r>    -1.6826    30.2490   511.8873 </r>
       <r>    -1.6026    29.8748   514.2765 </r>
       <r>    -1.5227    35.2218   517.0933 </r>
       <r>    -1.4427    26.9103   519.2454 </r>
       <r>    -1.3627    14.3876   520.3961 </r>
       <r>    -1.2828    14.8672   521.5851 </r>
       <r>    -1.2028     8.6872   522.2798 </r>
       <r>    -1.1228     9.5684   523.0450 </r>
       <r>    -1.0428    12.0768   524.0109 </r>
       <r>    -0.9629    12.7204   525.0282 </r>
       <r>    -0.8829    18.0685   526.4732 </r>
       <r>    -0.8029    23.2629   528.3336 </r>
       <r>    -0.7229    12.5846   529.3400 </r>
       <r>    -0.6430    10.7189   530.1973 </r>
       <r>    -0.5630    14.7279   531.3751 </r>
       <r>    -0.4830    26.9437   533.5299 </r>
       <r>    -0.4030    53.8909   537.8398 </r>
       <r>    -0.3231    27.0231   540.0009 </r>
       <r>    -0.2431    13.0621   541.0456 </r>
       <r>    -0.1631    19.1124   542.5740 </r>
       <r>    -0.0831    13.2393   543.6328 </r>
       <r>    -0.0032    11.0871   544.5195 </r>
       <r>     0.0768    11.4725   545.4370 </r>
       <r>     0.1568     3.2078   545.6936 </r>
       <r>     0.2368     2.6836   545.9082 </r>
       <r>     0.3167     8.4596   546.5847 </r>
       <r>     0.3967     8.2178   547.2419 </r>
       <r>     0.4767     4.7237   547.6197 </r>
       <r>     0.5566    15.2356   548.8382 </r>
       <r>     0.6366    22.9695   550.6751 </r>
       <r>     0.7166    31.7585   553.2150 </r>
       <r>     0.7966    26.4065   555.3268 </r>
       <r>     0.8765    12.8037   556.3508 </r>
       <r>     0.9565    25.0958   558.3578 </r>
       <r>     1.0365    25.8771   560.4273 </r>
       <r>     1.1165     9.0573   561.1516 </r>
       <r>     1.1964    12.5799   562.1577 </r>
       <r>     1.2764    17.9478   563.5930 </r>
       <r>     1.3564    16.3364   564.8995 </r>
       <r>     1.4364    10.5875   565.7462 </r>
       <r>     1.5163     6.8939   566.2976 </r>
       <r>     1.5963     9.1488   567.0292 </r>
       <r>     1.6763    13.0240   568.0708 </r>
       <r>     1.7563    30.5501   570.5140 </r>
       <r>     1.8362    21.9310   572.2679 </r>
       <r>     1.9162    13.1168   573.3169 </r>
       <r>     1.9962    25.0172   575.3177 </r>
       <r>     2.0762    18.4642   576.7943 </r>
       <r>     2.1561     7.7515   577.4142 </r>
       <r>     2.2361     5.5617   577.8590 </r>
       <r>     2.3161     7.7781   578.4811 </r>
       <r>     2.3960    15.6661   579.7340 </r>
       <r>     2.4760    11.7352   580.6725 </r>
       <r>     2.5560     8.1872   581.3272 </r>
       <r>     2.6360    15.3995   582.5588 </r>
       <r>     2.7159    15.2367   583.7773 </r>
       <r>     2.7959    10.0184   584.5785 </r>
       <r>     2.8759    11.9821   585.5368 </r>
       <r>     2.9559     6.3977   586.0484 </r>
       <r>     3.0358     4.0404   586.3716 </r>
       <r>     3.1158    11.4865   587.2902 </r>
       <r>     3.1958    13.7161   588.3871 </r>
       <r>     3.2758    12.1136   589.3559 </r>
       <r>     3.3557    10.4630   590.1927 </r>
       <r>     3.4357     7.8914   590.8238 </r>
       <r>     3.5157     8.3034   591.4878 </r>
       <r>     3.5957    14.7638   592.6685 </r>
       <r>     3.6756    22.0645   594.4331 </r>
       <r>     3.7556    18.6691   595.9262 </r>
       <r>     3.8356    15.6940   597.1813 </r>
       <r>     3.9156    13.3445   598.2485 </r>
       <r>     3.9955     7.6223   598.8581 </r>
       <r>     4.0755     9.3555   599.6062 </r>
       <r>     4.1555     1.9068   599.7587 </r>
       <r>     4.2354     4.5422   600.1220 </r>
       <r>     4.3154    18.7250   601.6195 </r>
       <r>     4.3954    14.1158   602.7484 </r>
       <r>     4.4754    17.0417   604.1113 </r>
       <r>     4.5553    29.8199   606.4961 </r>
       <r>     4.6353    31.5020   609.0154 </r>
       <r>     4.7153    23.9567   610.9314 </r>
       <r>     4.7953    11.3457   611.8387 </r>
       <r>     4.8752    10.3033   612.6627 </r>
       <r>     4.9552    16.7199   613.9999 </r>
       <r>     5.0352    27.7307   616.2176 </r>
       <r>     5.1152    44.0187   619.7379 </r>
       <r>     5.1951    38.3294   622.8033 </r>
       <r>     5.2751    23.1838   624.6574 </r>
       <r>     5.3551    22.8848   626.4876 </r>
       <r>     5.4351    26.5463   628.6106 </r>
       <r>     5.5150    22.4701   630.4076 </r>
       <r>     5.5950    25.0644   632.4121 </r>
       <r>     5.6750    21.9238   634.1654 </r>
       <r>     5.7550    15.7957   635.4287 </r>
       <r>     5.8349    29.2468   637.7677 </r>
       <r>     5.9149    44.8593   641.3552 </r>
       <r>     5.9949    34.9322   644.1489 </r>
       <r>     6.0748     9.5796   644.9150 </r>
       <r>     6.1548     9.8376   645.7018 </r>
       <r>     6.2348    14.0857   646.8283 </r>
       <r>     6.3148    10.9297   647.7023 </r>
       <r>     6.3947     3.8718   648.0120 </r>
       <r>     6.4747     0.0494   648.0159 </r>
       <r>     6.5547    -0.1798   648.0016 </r>
       <r>     6.6347    -0.0191   648.0000 </r>
       <r>     6.7146    -0.0005   648.0000 </r>
       <r>     6.7946    -0.0000   648.0000 </r>
       <r>     6.8746    -0.0000   648.0000 </r>
       <r>     6.9546    -0.0000   648.0000 </r>
       <r>     7.0345     0.0000   648.0000 </r>
       <r>     7.1145     0.0000   648.0000 </r>
       <r>     7.1945     0.0000   648.0000 </r>
       <r>     7.2745     0.0000   648.0000 </r>
       <r>     7.3544     0.0000   648.0000 </r>
       <r>     7.4344     0.0000   648.0000 </r>
      </set>
     </set>
    </array>
   </total>
  </dos>
 </calculation>
 <structure name="finalpos" >
  <crystal>
   <varray name="basis" >
    <v>      10.11850195       0.00000000       0.00000000 </v>
    <v>      -5.05925097       8.76287974       0.00000000 </v>
    <v>       0.00000000       0.00000000      18.58887505 </v>
   </varray>
   <i name="volume">   1648.22379336 </i>
   <varray name="rec_basis" >
    <v>       0.09882886       0.05705887      -0.00000000 </v>
    <v>       0.00000000       0.11411774      -0.00000000 </v>
    <v>       0.00000000       0.00000000       0.05379562 </v>
   </varray>
  </crystal>
  <varray name="positions" >
   <v>       0.99897919       0.00134834       0.61202890 </v>
   <v>       0.00021600       0.25041067       0.61471980 </v>
   <v>       0.99558120       0.49704650       0.61207499 </v>
   <v>       0.99567700       0.74957456       0.61109056 </v>
   <v>       0.24425896       0.00480009       0.61771541 </v>
   <v>       0.25051981       0.25259022       0.61197487 </v>
   <v>       0.25139955       0.49702882       0.61208801 </v>
   <v>       0.25171957       0.75344558       0.60158889 </v>
   <v>       0.51056396       0.00480484       0.61768620 </v>
   <v>       0.50332374       0.25664178       0.61103195 </v>
   <v>       0.50112329       0.50141587       0.61334837 </v>
   <v>       0.50386696       0.74957000       0.61109416 </v>
   <v>       0.75237148       0.00137663       0.61202777 </v>
   <v>       0.75206495       0.25259844       0.61197297 </v>
   <v>       0.75026455       0.50139432       0.61334749 </v>
   <v>       0.75050399       0.75094043       0.61329256 </v>
   <v>       0.08333535       0.16671059       0.38889148 </v>
   <v>       0.08329684       0.41659326       0.38880872 </v>
   <v>       0.08324354       0.66662851       0.38873048 </v>
   <v>       0.08327422       0.91673155       0.38878459 </v>
   <v>       0.33333281       0.16668958       0.38886514 </v>
   <v>       0.33334809       0.41663014       0.38883794 </v>
   <v>       0.33338527       0.66662850       0.38873044 </v>
   <v>       0.33338990       0.91677985       0.38871267 </v>
   <v>       0.58335698       0.16668847       0.38886516 </v>
   <v>       0.58336764       0.41668268       0.38888436 </v>
   <v>       0.58338430       0.66665940       0.38882993 </v>
   <v>       0.58345920       0.91673156       0.38878458 </v>
   <v>       0.83337555       0.16670953       0.38889160 </v>
   <v>       0.83328408       0.41663008       0.38883801 </v>
   <v>       0.83327594       0.66665940       0.38883011 </v>
   <v>       0.83337161       0.91667097       0.38887627 </v>
   <v>       0.16661106       0.08337393       0.49995505 </v>
   <v>       0.16660834       0.33317385       0.49987332 </v>
   <v>       0.16634798       0.58269386       0.49927835 </v>
   <v>       0.16605135       0.83396939       0.49904215 </v>
   <v>       0.41688947       0.08377902       0.49977113 </v>
   <v>       0.41664008       0.33340476       0.50000806 </v>
   <v>       0.41691424       0.58326606       0.49976107 </v>
   <v>       0.41791861       0.83396986       0.49904167 </v>
   <v>       0.66676350       0.08337370       0.49995493 </v>
   <v>       0.66676521       0.33340483       0.50000845 </v>
   <v>       0.66664283       0.58331601       0.49994300 </v>
   <v>       0.66692375       0.83340967       0.49987179 </v>
   <v>       0.91673347       0.08345076       0.50002496 </v>
   <v>       0.91656583       0.33317328       0.49987345 </v>
   <v>       0.91635132       0.58326635       0.49976117 </v>
   <v>       0.91648512       0.83340829       0.49987254 </v>
   <v>       0.35190228       0.95372088       0.68585755 </v>
   <v>       0.37772324       0.00522712       0.73515682 </v>
   <v>       0.19835585       0.64689068       0.71968116 </v>
  </varray>
 </structure>
</modeling>
