  51  51   0   0
  0.3231811E+02  0.1011850E-08  0.1011850E-08  0.1858888E-08  0.1500000E-16
  1.000000000000000E-004
  CAR 
 Bulk Frequency (Finite Difference)      
      7.43861182    -16.61933387  301     -0.44175534      1.00000000
    -16.619  0.0000E+00  0.0000E+00
    -16.539  0.0000E+00  0.0000E+00
    -16.459  0.0000E+00  0.0000E+00
    -16.379 -0.2318E-32 -0.1859E-33
    -16.299 -0.9654E-27 -0.7742E-28
    -16.218 -0.1099E-21 -0.8811E-23
    -16.138 -0.3409E-17 -0.2734E-18
    -16.058 -0.2773E-13 -0.2224E-14
    -15.978 -0.6223E-10 -0.4993E-11
    -15.898 -0.3697E-07 -0.2970E-08
    -15.817 -0.5640E-05 -0.4552E-06
    -15.737 -0.2027E-03 -0.1671E-04
    -15.657 -0.1114E-02 -0.1060E-03
    -15.577  0.6087E-02  0.3821E-03
    -15.497  0.2349E-01  0.2265E-02
    -15.416  0.1142E-01  0.3181E-02
    -15.336 -0.8156E-03  0.3116E-02
    -15.256 -0.4073E-03  0.3083E-02
    -15.176 -0.1749E-04  0.3082E-02
    -15.096 -0.1682E-06  0.3082E-02
    -15.015 -0.4092E-09  0.3082E-02
    -14.935 -0.2619E-12  0.3082E-02
    -14.855 -0.4266E-16  0.3082E-02
    -14.775  0.0000E+00  0.3082E-02
    -14.695  0.0000E+00  0.3082E-02
    -14.615  0.0000E+00  0.3082E-02
    -14.534  0.0000E+00  0.3082E-02
    -14.454  0.0000E+00  0.3082E-02
    -14.374  0.0000E+00  0.3082E-02
    -14.294  0.0000E+00  0.3082E-02
    -14.214  0.0000E+00  0.3082E-02
    -14.133  0.0000E+00  0.3082E-02
    -14.053  0.0000E+00  0.3082E-02
    -13.973  0.0000E+00  0.3082E-02
    -13.893  0.0000E+00  0.3082E-02
    -13.813  0.0000E+00  0.3082E-02
    -13.732  0.0000E+00  0.3082E-02
    -13.652  0.0000E+00  0.3082E-02
    -13.572  0.0000E+00  0.3082E-02
    -13.492  0.0000E+00  0.3082E-02
    -13.412  0.0000E+00  0.3082E-02
    -13.331  0.0000E+00  0.3082E-02
    -13.251  0.0000E+00  0.3082E-02
    -13.171  0.0000E+00  0.3082E-02
    -13.091  0.0000E+00  0.3082E-02
    -13.011  0.0000E+00  0.3082E-02
    -12.930  0.0000E+00  0.3082E-02
    -12.850  0.0000E+00  0.3082E-02
    -12.770  0.0000E+00  0.3082E-02
    -12.690  0.0000E+00  0.3082E-02
    -12.610  0.0000E+00  0.3082E-02
    -12.529  0.0000E+00  0.3082E-02
    -12.449  0.0000E+00  0.3082E-02
    -12.369  0.0000E+00  0.3082E-02
    -12.289  0.0000E+00  0.3082E-02
    -12.209  0.0000E+00  0.3082E-02
    -12.129  0.0000E+00  0.3082E-02
    -12.048  0.0000E+00  0.3082E-02
    -11.968  0.0000E+00  0.3082E-02
    -11.888  0.0000E+00  0.3082E-02
    -11.808  0.0000E+00  0.3082E-02
    -11.728  0.0000E+00  0.3082E-02
    -11.647  0.0000E+00  0.3082E-02
    -11.567  0.0000E+00  0.3082E-02
    -11.487  0.0000E+00  0.3082E-02
    -11.407  0.0000E+00  0.3082E-02
    -11.327  0.0000E+00  0.3082E-02
    -11.246  0.0000E+00  0.3082E-02
    -11.166  0.0000E+00  0.3082E-02
    -11.086  0.0000E+00  0.3082E-02
    -11.006  0.0000E+00  0.3082E-02
    -10.926  0.0000E+00  0.3082E-02
    -10.845  0.0000E+00  0.3082E-02
    -10.765  0.0000E+00  0.3082E-02
    -10.685  0.0000E+00  0.3082E-02
    -10.605  0.0000E+00  0.3082E-02
    -10.525  0.0000E+00  0.3082E-02
    -10.444  0.0000E+00  0.3082E-02
    -10.364  0.0000E+00  0.3082E-02
    -10.284  0.0000E+00  0.3082E-02
    -10.204  0.0000E+00  0.3082E-02
    -10.124  0.0000E+00  0.3082E-02
    -10.043 -0.3193E-30  0.3082E-02
     -9.963 -0.6618E-25  0.3082E-02
     -9.883 -0.3745E-20  0.3082E-02
     -9.803 -0.5600E-16  0.3082E-02
     -9.723 -0.2306E-12  0.3082E-02
     -9.643 -0.2538E-09  0.3082E-02
     -9.562 -0.7296E-07  0.3082E-02
     -9.482 -0.5208E-05  0.3081E-02
     -9.402 -0.7706E-04  0.3075E-02
     -9.322  0.4679E-04  0.3079E-02
     -9.242  0.1818E-02  0.3225E-02
     -9.161  0.1649E-02  0.3357E-02
     -9.081  0.1925E-02  0.3511E-02
     -9.001  0.1380E-01  0.4618E-02
     -8.921  0.1102E-01  0.5501E-02
     -8.841  0.1767E-03  0.5515E-02
     -8.760 -0.7540E-03  0.5455E-02
     -8.680 -0.3208E-03  0.5429E-02
     -8.600  0.8067E-02  0.6076E-02
     -8.520  0.1445E-01  0.7235E-02
     -8.440  0.4953E-02  0.7632E-02
     -8.359  0.1228E-01  0.8617E-02
     -8.279  0.1203E-01  0.9581E-02
     -8.199  0.6314E-03  0.9632E-02
     -8.119 -0.5157E-03  0.9591E-02
     -8.039 -0.5365E-04  0.9586E-02
     -7.958 -0.3652E-03  0.9557E-02
     -7.878 -0.1200E-02  0.9461E-02
     -7.798  0.1017E-01  0.1028E-01
     -7.718  0.3017E-01  0.1270E-01
     -7.638  0.1396E-01  0.1382E-01
     -7.558  0.1110E-02  0.1390E-01
     -7.477  0.5660E-03  0.1395E-01
     -7.397  0.3815E-02  0.1426E-01
     -7.317  0.2391E-01  0.1617E-01
     -7.237  0.2862E-01  0.1847E-01
     -7.157  0.6043E-02  0.1895E-01
     -7.076 -0.1325E-02  0.1885E-01
     -6.996 -0.9414E-03  0.1877E-01
     -6.916  0.2491E-03  0.1879E-01
     -6.836  0.1661E-01  0.2012E-01
     -6.756  0.2760E-01  0.2234E-01
     -6.675  0.2345E-01  0.2422E-01
     -6.595  0.3910E-01  0.2735E-01
     -6.515  0.1894E-01  0.2887E-01
     -6.435 -0.1529E-02  0.2875E-01
     -6.355  0.6678E-02  0.2928E-01
     -6.274  0.2096E-01  0.3097E-01
     -6.194  0.2388E-01  0.3288E-01
     -6.114  0.9024E-02  0.3360E-01
     -6.034 -0.5780E-03  0.3356E-01
     -5.954  0.9568E-02  0.3433E-01
     -5.873  0.1417E-01  0.3546E-01
     -5.793  0.2546E-01  0.3750E-01
     -5.713  0.5861E-01  0.4220E-01
     -5.633  0.5613E-01  0.4670E-01
     -5.553  0.2936E-01  0.4906E-01
     -5.472  0.2627E-01  0.5117E-01
     -5.392  0.1083E-01  0.5203E-01
     -5.312  0.3986E-01  0.5523E-01
     -5.232  0.9155E-01  0.6257E-01
     -5.152  0.6994E-01  0.6818E-01
     -5.072  0.9422E-01  0.7574E-01
     -4.991  0.1090E+00  0.8448E-01
     -4.911  0.8443E-01  0.9125E-01
     -4.831  0.7497E-01  0.9726E-01
     -4.751  0.8052E-01  0.1037E+00
     -4.671  0.1261E+00  0.1138E+00
     -4.590  0.1686E+00  0.1273E+00
     -4.510  0.1502E+00  0.1394E+00
     -4.430  0.1311E+00  0.1499E+00
     -4.350  0.1438E+00  0.1614E+00
     -4.270  0.1268E+00  0.1716E+00
     -4.189  0.1198E+00  0.1812E+00
     -4.109  0.1285E+00  0.1915E+00
     -4.029  0.1031E+00  0.1998E+00
     -3.949  0.1801E+00  0.2142E+00
     -3.869  0.2548E+00  0.2347E+00
     -3.788  0.1709E+00  0.2484E+00
     -3.708  0.1267E+00  0.2585E+00
     -3.628  0.1768E+00  0.2727E+00
     -3.548  0.2656E+00  0.2940E+00
     -3.468  0.2416E+00  0.3134E+00
     -3.387  0.2279E+00  0.3317E+00
     -3.307  0.3109E+00  0.3566E+00
     -3.227  0.3502E+00  0.3847E+00
     -3.147  0.3655E+00  0.4140E+00
     -3.067  0.3458E+00  0.4417E+00
     -2.986  0.2570E+00  0.4623E+00
     -2.906  0.1804E+00  0.4768E+00
     -2.826  0.1815E+00  0.4913E+00
     -2.746  0.2172E+00  0.5088E+00
     -2.666  0.2966E+00  0.5325E+00
     -2.586  0.3723E+00  0.5624E+00
     -2.505  0.3422E+00  0.5898E+00
     -2.425  0.2514E+00  0.6100E+00
     -2.345  0.2416E+00  0.6294E+00
     -2.265  0.2669E+00  0.6508E+00
     -2.185  0.3389E+00  0.6780E+00
     -2.104  0.4403E+00  0.7133E+00
     -2.024  0.4617E+00  0.7503E+00
     -1.944  0.2450E+00  0.7699E+00
     -1.864  0.9786E-01  0.7778E+00
     -1.784  0.6696E-01  0.7832E+00
     -1.703  0.5015E-01  0.7872E+00
     -1.623  0.4563E-01  0.7908E+00
     -1.543  0.5651E-01  0.7954E+00
     -1.463  0.5466E-01  0.7998E+00
     -1.383  0.3240E-01  0.8023E+00
     -1.302  0.1989E-01  0.8039E+00
     -1.222  0.4151E-02  0.8043E+00
     -1.142  0.6855E-02  0.8048E+00
     -1.062  0.2643E-01  0.8069E+00
     -0.982  0.1826E-01  0.8084E+00
     -0.901  0.1558E-01  0.8097E+00
     -0.821  0.3181E-01  0.8122E+00
     -0.741  0.2855E-01  0.8145E+00
     -0.661  0.1756E-01  0.8159E+00
     -0.581  0.2388E-01  0.8178E+00
     -0.501  0.3079E-01  0.8203E+00
     -0.420  0.7406E-01  0.8262E+00
     -0.340  0.6489E-01  0.8314E+00
     -0.260  0.2115E-01  0.8331E+00
     -0.180  0.2655E-01  0.8353E+00
     -0.100  0.2784E-01  0.8375E+00
     -0.019  0.2170E-01  0.8392E+00
      0.061  0.9352E-02  0.8400E+00
      0.141  0.6379E-02  0.8405E+00
      0.221  0.8281E-02  0.8412E+00
      0.301  0.2252E-02  0.8413E+00
      0.382  0.1141E-01  0.8423E+00
      0.462  0.1537E-01  0.8435E+00
      0.542  0.1948E-01  0.8451E+00
      0.622  0.3311E-01  0.8477E+00
      0.702  0.4273E-01  0.8511E+00
      0.783  0.4661E-01  0.8549E+00
      0.863  0.2986E-01  0.8573E+00
      0.943  0.3716E-01  0.8602E+00
      1.023  0.4100E-01  0.8635E+00
      1.103  0.1575E-01  0.8648E+00
      1.184  0.1742E-01  0.8662E+00
      1.264  0.2318E-01  0.8681E+00
      1.344  0.3025E-01  0.8705E+00
      1.424  0.1597E-01  0.8718E+00
      1.504  0.7547E-02  0.8724E+00
      1.585  0.1331E-01  0.8734E+00
      1.665  0.1557E-01  0.8747E+00
      1.745  0.4132E-01  0.8780E+00
      1.825  0.4243E-01  0.8814E+00
      1.905  0.2035E-01  0.8830E+00
      1.985  0.3627E-01  0.8859E+00
      2.066  0.3497E-01  0.8887E+00
      2.146  0.2224E-01  0.8905E+00
      2.226  0.1886E-01  0.8920E+00
      2.306  0.8877E-02  0.8927E+00
      2.386  0.9882E-02  0.8935E+00
      2.467  0.1477E-01  0.8947E+00
      2.547  0.9847E-02  0.8955E+00
      2.627  0.2260E-01  0.8973E+00
      2.707  0.2943E-01  0.8997E+00
      2.787  0.1285E-01  0.9007E+00
      2.868  0.1658E-01  0.9020E+00
      2.948  0.1108E-01  0.9029E+00
      3.028  0.7062E-02  0.9035E+00
      3.108  0.1559E-01  0.9048E+00
      3.188  0.1746E-01  0.9062E+00
      3.269  0.2246E-01  0.9080E+00
      3.349  0.1928E-01  0.9095E+00
      3.429  0.1708E-01  0.9109E+00
      3.509  0.1338E-01  0.9119E+00
      3.589  0.1864E-01  0.9134E+00
      3.670  0.2673E-01  0.9156E+00
      3.750  0.3099E-01  0.9181E+00
      3.830  0.1838E-01  0.9195E+00
      3.910  0.2149E-01  0.9213E+00
      3.990  0.2290E-01  0.9231E+00
      4.070  0.1291E-01  0.9241E+00
      4.151 -0.3070E-03  0.9241E+00
      4.231  0.5886E-02  0.9246E+00
      4.311  0.2788E-01  0.9268E+00
      4.391  0.2300E-01  0.9287E+00
      4.471  0.2297E-01  0.9305E+00
      4.552  0.4551E-01  0.9342E+00
      4.632  0.5058E-01  0.9382E+00
      4.712  0.3803E-01  0.9413E+00
      4.792  0.1888E-01  0.9428E+00
      4.872  0.1566E-01  0.9440E+00
      4.953  0.2400E-01  0.9460E+00
      5.033  0.4224E-01  0.9493E+00
      5.113  0.6968E-01  0.9549E+00
      5.193  0.5923E-01  0.9597E+00
      5.273  0.3569E-01  0.9625E+00
      5.354  0.3388E-01  0.9653E+00
      5.434  0.4435E-01  0.9688E+00
      5.514  0.3720E-01  0.9718E+00
      5.594  0.3682E-01  0.9748E+00
      5.674  0.3293E-01  0.9774E+00
      5.755  0.2280E-01  0.9792E+00
      5.835  0.4342E-01  0.9827E+00
      5.915  0.6361E-01  0.9878E+00
      5.995  0.5576E-01  0.9923E+00
      6.075  0.2088E-01  0.9940E+00
      6.156  0.1554E-01  0.9952E+00
      6.236  0.1864E-01  0.9967E+00
      6.316  0.1569E-01  0.9979E+00
      6.396  0.6481E-02  0.9985E+00
      6.476  0.2089E-03  0.9985E+00
      6.556 -0.2964E-03  0.9985E+00
      6.637 -0.3110E-04  0.9985E+00
      6.717 -0.7321E-06  0.9985E+00
      6.797 -0.4459E-08  0.9985E+00
      6.877 -0.7240E-11  0.9985E+00
      6.957 -0.3168E-14  0.9985E+00
      7.038  0.0000E+00  0.9985E+00
      7.118  0.0000E+00  0.9985E+00
      7.198  0.0000E+00  0.9985E+00
      7.278  0.0000E+00  0.9985E+00
      7.358  0.0000E+00  0.9985E+00
      7.439  0.0000E+00  0.9985E+00
