  51   51
1 1
     8.432193343810759    -0.543711802936633     0.336575100406102
    -0.543711802936633     7.365354415345036    -0.106954460586340
     0.336575100406102    -0.106954460586340     3.914087637491662
1 2
    -0.477462224014491     0.859839738983950     0.084167112122573
     0.991390405722576    -1.508472414674886    -0.156226336546112
    -0.567352105154227     0.077284860680725    -0.099613149360861
1 3
    -0.027956630579771     0.052764010056708    -0.012024347117869
     0.077331480121132    -0.100660001505592     0.003776208474021
     0.031142896426255    -0.002868858439505     0.032509015035406
1 4
    -0.444069605478269     0.890832605574714    -0.079545310722154
     0.811129160566664    -1.420472576132050     0.137750750703454
     0.124806474362408    -0.152844820266949    -0.069138668586733
1 5
    -2.568244298789188     0.038051400879246    -0.417601323284198
    -0.060637653929741     0.024191768856333    -0.012481298236349
    -0.048948095755892    -0.039638097303618     0.067240100326415
1 6
    -0.402287702937212    -0.780880109357664    -0.118856206116171
    -0.782689661267632    -1.319811888205250    -0.136430104899283
     0.063816452345503     0.139451057638066    -0.104060435969272
1 7
    -0.025027962492320     0.011045861485467     0.010412741923886
     0.044292433509270    -0.097642876085062     0.015788265012146
    -0.006343582398518     0.025011462382514     0.003959355532740
1 8
    -0.073098221725579     0.033246686427338     0.001743528070021
     0.063519153959835    -0.010766995069293    -0.015589559072701
    -0.008388282973906     0.010702266069353     0.013443470964729
1 9
     0.001432371256167     0.003291392294590    -0.031504505198930
     0.037724113166993     0.002758394026471    -0.029933978674161
     0.062092773288760     0.001256488821904     0.022807064872948
1 10
    -0.065128364479828    -0.030054487197529     0.029706851256575
    -0.005466544100548    -0.005131027134035    -0.007677002397375
    -0.015271639449896     0.008863663461801    -0.016066790817795
1 11
    -0.021702249137308    -0.023768291172086     0.012320264860879
    -0.035536400372937    -0.077384724566233     0.008532343024949
     0.012037766132478     0.001823236132772     0.004891749541043
1 12
    -0.092288002834824    -0.023651908976210    -0.004421488611328
    -0.015558722119928    -0.040177330564381    -0.009640089051127
    -0.015116555058233     0.015259369670795     0.013449718957774
1 13
    -2.274640978287944     0.008972040010326     0.111164232456227
    -0.001573917029526     0.047043718916105    -0.006973017646263
    -0.101392061924161     0.003175956527956    -0.107302548941273
1 14
    -0.118251183022691     0.037094995129049     0.011195722315737
     0.048896120149994    -0.040195375121906     0.006911637549794
     0.017104290473561    -0.011922218562389    -0.007850555159658
1 15
    -0.040099413956981     0.002838208692515     0.009164042942666
    -0.007352977785943    -0.084540236651051     0.005782266655470
     0.011047109524027     0.021797919093235    -0.012587826127755
1 16
    -0.487650880614783    -0.894561274179888     0.070436329680743
    -0.862610012777472    -1.499482356107838     0.155465568640564
    -0.092079923605772    -0.121780220059823    -0.070145422292538
1 17
     0.006342170554896     0.016737515341260     0.005697335031326
    -0.006225281343354    -0.016968178868102     0.023136752459350
     0.025179068761071     0.015834554242350    -0.033036516733697
1 18
     0.014929089266077    -0.036457876643913     0.002092690258132
    -0.035504622191083     0.052054388331431     0.039596189208778
     0.001093544387388     0.024610308988024     0.018757821962946
1 19
     0.012976946350455    -0.014356377370921     0.001583170715438
    -0.022945103137935     0.019891503790465    -0.000508417108632
     0.034451623456439    -0.019928775942068     0.022538260767671
1 20
    -0.000316096966490     0.004732913233456     0.000670100504185
     0.012740999460372     0.003076131643653     0.004436467674138
    -0.023671399178401    -0.010031648149181    -0.023374652009764
1 21
    -0.021077218425650    -0.014371203028991    -0.005217531806781
    -0.008493375620968     0.002931340970036     0.007278940498403
     0.005757461889074     0.022039331352182     0.064448030059444
1 22
     0.011973091734224     0.033925382797111     0.010211532107080
     0.043376003994224     0.029810945472788     0.030171103400636
    -0.001193774884223     0.017402101075055     0.017229973156796
1 23
    -0.099511709826670     0.014971873587990     0.008303353949843
     0.011967098549052    -0.106323709697945     0.007340089187722
    -0.002654089203751    -0.011937330229296    -0.052758859297565
1 24
     0.049876537642085     0.000685643784428     0.014452312535042
     0.023346937753473    -0.007759937159821     0.014022098042647
     0.011043674817905    -0.025867611635072     0.046152936593483
1 25
    -0.040786173175873     0.033860149381585     0.000833663757821
     0.014548213898120    -0.028023621649604     0.019916097950354
     0.017549437227320     0.032627019681411    -0.016182455391499
1 26
    -0.007441393517735     0.010486381399135     0.038021297149127
     0.010188019580610    -0.035175296015847    -0.014460661392998
     0.009884884014590    -0.006722193096503    -0.025994830965785
1 27
    -0.007649160737147     0.031598469502158     0.011756094229623
     0.021923986588359     0.024023910269984    -0.007003331982889
    -0.024662123388940    -0.022475835438908     0.024974996255815
1 28
     0.076080428067209    -0.002935238490458    -0.001441643142642
    -0.002849805050810     0.003718712897572    -0.005464893049535
    -0.011088528803764     0.006965032799554     0.033736252953541
1 29
    -0.024746254188341     0.018664507679802     0.010538148998606
     0.017878373390505    -0.032737205885849     0.007484250641898
    -0.012114965117705    -0.002437757319715     0.046505224078157
1 30
    -0.024846991700841    -0.000465858993708    -0.001397865590041
     0.010212977751746    -0.015618432964822    -0.007074410379008
    -0.015127415593792     0.006332040641911    -0.020117390969732
1 31
     0.042281240169159     0.016353005060995     0.004155222184458
    -0.001205797655692    -0.045512068792505     0.004383592440445
     0.034537647114324     0.017462526942041     0.031118674077854
1 32
    -0.035325903069174     0.005218207827668     0.029123380228992
     0.014865881313132     0.011454206702164     0.019431801786991
    -0.008833585732485     0.023524572641882    -0.017491697243320
1 33
    -0.366496577894012    -0.251294945893709     0.819437511870910
    -0.224792519444678    -0.044381894473357     0.461930646733261
     0.713243683985941     0.408781746784557    -1.238718975866641
1 34
    -0.042161095657038    -0.006795543962835     0.016009958261832
     0.021930450388072    -0.107416440260188     0.117551595007426
    -0.000594713774951    -0.039041194261025     0.002236048287484
1 35
    -0.017613170396492     0.042013317491116    -0.025436024300261
     0.056695934741914    -0.050614359838677    -0.037636885671914
    -0.000928592690853    -0.014115027513902    -0.011398772989421
1 36
    -0.056604471715968     0.041115218542432     0.072375053581755
     0.027919428630338    -0.078270831944412    -0.038891154025212
     0.022673834156501     0.000833861363927    -0.006154551358000
1 37
    -0.064717728592356     0.018822829171482     0.034512925550498
     0.011265885483578     0.009771970325880    -0.002239274987180
     0.012752546417140     0.046774275191066    -0.030945326721918
1 38
    -0.024843757200904    -0.045090931180559     0.042691012829960
    -0.010871492297958    -0.038869898368473     0.039247570437457
     0.023550461641778     0.027847999223374    -0.018020969596319
1 39
    -0.001889644784609    -0.027550331626298     0.019955091355139
    -0.041430514684179    -0.044906068068819    -0.027039124631467
     0.004447804024399    -0.019671851603842    -0.008251323742258
1 40
    -0.059312244778397     0.011473179488368    -0.001916142203303
    -0.004184699295216     0.026856827799017     0.043100278475095
     0.019594239205842    -0.014175926595509     0.013881085285757
1 41
    -0.024804173577884    -0.016400560530322    -0.017445064802511
     0.028680940158862     0.009074181566207     0.012567545501142
    -0.037076708764053     0.014460177778056    -0.026495806644498
1 42
     0.044262485783971     0.023055341343979    -0.013058887882214
     0.020751937975416     0.007379053991623     0.007388669088702
    -0.018615246557774     0.008944096946965     0.033229801505642
1 43
    -0.007282375204525    -0.003022463385457    -0.007407527471372
    -0.037626794760134    -0.039396282032220    -0.052306237312843
    -0.007743041837804    -0.050824183721634    -0.018421046557551
1 44
    -0.059469193427660    -0.016992903032008    -0.101995740776108
    -0.027845965960552    -0.055014233982179    -0.038705471888166
     0.019962335178952     0.033098874460372     0.000300478283918
1 45
    -0.318916610609370     0.233369019633957    -0.830421093632112
     0.277519681162879    -0.034692068485501     0.501557875701079
    -0.805135156369110     0.438033331774709    -1.320311618445482
1 46
     0.012677515898912     0.021613549996758    -0.038241950366679
     0.040512257312658    -0.012656491649323     0.037190015064893
    -0.049429017014980     0.022712317945539    -0.030920350350219
1 47
     0.010902529456918     0.040485936699426     0.005273446534386
     0.031328820370773    -0.022279435770721    -0.045548948331977
    -0.007183161339101    -0.026193471903221    -0.018548861306660
1 48
     0.114454831726315     0.004527748694460    -0.011451739225926
    -0.020356821967464    -0.422884655324018    -0.881359886294833
    -0.019615219254065    -0.850743802545580    -1.209659846222808
1 49
    -0.164932587597985     0.022435109885564     0.046009647409640
    -0.005311734001850     0.044230182047236     0.121652552642762
    -0.015099511733524     0.031426520442823    -0.071785281287153
1 50
    -0.038102928640703    -0.002649985004801     0.006280742849866
     0.031534005384489    -0.014172446693533    -0.018991135453205
    -0.015199676760332     0.003179159929460    -0.015593977875641
1 51
    -0.002904942491038    -0.001547650615996    -0.016173157114508
     0.006124940733989     0.003398222519289    -0.010461189039171
    -0.001527027277468    -0.002488549950615     0.022486321813468
2 1
    -0.477462224014491     0.991390405722576    -0.567352105154227
     0.859839738983950    -1.508472414674886     0.077284860680725
     0.084167112122573    -0.156226336546112    -0.099613149360861
2 2
     7.867677398485742    -0.344094444332282     0.041031818365605
    -0.344094444332282     7.462533775108772    -0.065760839221486
     0.041031818365605    -0.065760839221486     3.723550318434513
2 3
    -0.480476803956372     0.875860011764471     0.091283857009596
     0.977696302614033    -1.523664590469583    -0.116355802460863
    -0.441642284881018     0.125803979582461    -0.078728880296793
2 4
    -0.047507302839519     0.067227973551732     0.006280949063327
     0.063021729990860    -0.087877229154557    -0.003600908457752
     0.028243975857917     0.042752361725465     0.040829433312487
2 5
    -0.126453100038423     0.052203388535110     0.030600415665155
     0.043879722757690    -0.047539416431737    -0.006408995219586
     0.038072950345063    -0.035044816184395     0.009883474771048
2 6
    -2.060557183512171    -0.030335457078693    -0.119020055378643
    -0.008970807572247     0.022086476008817     0.020904034874774
     0.195458480706942     0.029444739758081    -0.072757689204100
2 7
    -0.463649609244276    -0.902842849856845    -0.075853591858620
    -0.936058881337033    -1.535010285419044    -0.107392753528336
     0.069480841758904     0.127856667604639    -0.077948567587367
2 8
    -0.000860358782621    -0.001515025209937     0.007937257438510
     0.029693627247991    -0.098468549796014     0.041896810491383
     0.005648183112673     0.024738573551031     0.036434912734394
2 9
    -0.071949467232357    -0.041906490590471    -0.044192910234286
    -0.022484891518714    -0.037729882745257    -0.011938089452754
    -0.033678070955884    -0.038963035846154     0.014174098739033
2 10
    -0.100476906448479     0.012651073081905     0.010124385214490
     0.009773909985810     0.013934867947487     0.005557338905847
     0.002565995881920    -0.006676915297549     0.035961547308759
2 11
    -0.081521943794451    -0.017801460414114     0.028190882217476
    -0.026476937861507    -0.019027395692001     0.004722840522238
    -0.018427697563048    -0.013621950879247    -0.011517646062258
2 12
    -0.026201261743905    -0.037702496099088     0.020270629304357
    -0.025633333996565    -0.075271805683094    -0.004183043044043
    -0.008152741696356     0.046475323154304     0.043471421742359
2 13
    -0.456663362389269    -0.941828649406332     0.076106792881806
    -0.892473908886283    -1.517348550722054     0.076867820795388
    -0.072880691204509    -0.149843836145140    -0.100526679786333
2 14
    -2.080185621574659     0.029468972506803     0.130856401087807
    -0.004423251465795     0.021111146873942     0.013582382856708
    -0.193657173651716     0.037136060797860    -0.074441358224648
2 15
    -0.102115432874251     0.047445732937186    -0.007292380313654
     0.045732753211021    -0.033820560558404     0.004904703141272
     0.040443170578076    -0.018324443172783    -0.012563941789798
2 16
    -0.016037313707037     0.026560135232067     0.009645710424811
     0.004448324040466    -0.090546183017583    -0.013421479485255
     0.009592073367580     0.036507114365218     0.000376936246250
2 17
    -0.011216166747411     0.005793649807177    -0.024982739295053
     0.018024178095452     0.005469976206590     0.004641892221168
     0.035522731750616    -0.020252335139120    -0.030525803759860
2 18
     0.033286569059597     0.005184528987089     0.009466809297279
     0.003304223691043    -0.006306801662098    -0.016970672345144
     0.003628802119587     0.009614402857497    -0.042200291868088
2 19
     0.013906620674728    -0.026543434916075     0.005372161184386
    -0.021800035558628     0.033525519042467     0.025285804658904
     0.010819134480252     0.020324661573800     0.013554452793749
2 20
    -0.010440076568449    -0.020314100047479     0.041592036874752
    -0.018276749899197     0.023649938115316     0.005253524718859
     0.011703434802598     0.006573788311221     0.006807161121772
2 21
     0.052988352788256     0.039904007519482     0.017346009541988
     0.029099519291758    -0.010707167220784    -0.005986276758797
     0.005792100159297    -0.005586254399253     0.016351052400663
2 22
    -0.030402448148526    -0.024332381200851     0.012595766773098
    -0.035256691530736    -0.004975149717869    -0.001617585378753
    -0.019815958456331     0.015413632437073     0.025294699533730
2 23
     0.010698844363632     0.038598980397884     0.006785471251617
     0.027196697300011     0.035160987773764     0.024399744082171
    -0.007049127197830     0.019498111635775     0.013585523753753
2 24
    -0.102244404659109     0.006617909074426     0.002786976709594
     0.004829433415653    -0.082758542001792     0.005600827849531
     0.001398562411571    -0.001445181851978    -0.068550980228847
2 25
     0.059099121393495    -0.023807149372693    -0.011802352258864
    -0.011613778832485    -0.008602643997047    -0.004036830126483
     0.004362308182822    -0.000846141543349     0.016985521403937
2 26
    -0.039326324270725     0.008152778097480     0.009164817766606
     0.007283542640596    -0.024918896922507     0.034182442339514
     0.001125070361450    -0.003615996723937    -0.037898903567516
2 27
    -0.027782724206563    -0.000197642506587     0.024414569740242
     0.008967684875765    -0.024056486676501     0.008042201880992
     0.003608968706791    -0.011649441534360    -0.027447272242058
2 28
    -0.010811706050735     0.035784292032079    -0.024391582430000
     0.030151386991455     0.027377343081448     0.006669934081850
    -0.009582359467448     0.008834235752569     0.006879011741750
2 29
     0.001827853875447     0.008778302824402     0.038055194396455
    -0.009059080299621     0.010043119703619     0.006110607400258
    -0.020834404723402    -0.020513216799616    -0.031470098335857
2 30
    -0.023635070855960     0.041890908309023    -0.004283016132925
     0.046999743757398    -0.010628434188159    -0.000722226914742
     0.025796164027546     0.016593127680096     0.025044751211043
2 31
    -0.019576959071935     0.014682614650718    -0.021375790850682
     0.002552062051404    -0.024979450193429     0.008042781698907
    -0.000441550842656    -0.011217960802842    -0.027841766830811
2 32
     0.033044946194143     0.004393750954314     0.007379659810341
     0.005143978134184    -0.023712230839982    -0.008529667542284
     0.003021776964249     0.020549396917478     0.032114000430586
2 33
    -0.114833809035628     0.022111439380114     0.154263637304330
     0.024402372763390    -0.069532240146967    -0.047423343645421
    -0.023466471246715     0.001927109342156    -0.012457530902006
2 34
    -0.258605568370994    -0.178276731240120     0.701867292488044
    -0.175825081691174    -0.036137856156197     0.386531114703788
     0.557805377187690     0.347270044649231    -1.048903426110095
2 35
    -0.050928251937043     0.000340597523487     0.005138283958250
     0.006788908557820    -0.090778385791983     0.112602888106564
    -0.013017624607297     0.004845197702724    -0.000395373415906
2 36
    -0.019118044892802     0.043688398446317    -0.045478031140839
     0.032504147685019    -0.042460099695406    -0.031049530141505
    -0.020865675889592     0.012412908323296     0.004727455664833
2 37
    -0.060545470681543    -0.000397791490617     0.004273380235203
     0.006344604230089     0.002543320581318     0.024471326893875
    -0.004918917780464     0.016229288038493    -0.011098825121891
2 38
    -0.052564947906258     0.016736992725113     0.026564942780607
     0.005620793866423     0.006421415803347     0.010849446216798
     0.031768371751651     0.009484453442432    -0.010701842256258
2 39
     0.015736312806971    -0.022121356086511     0.026113566234365
     0.004005540759731    -0.016706764191138     0.021147163186742
     0.048049336386803    -0.026435276774299    -0.037714355065496
2 40
    -0.020843978219196    -0.040305114112526     0.050096062424772
    -0.026803877162994    -0.045202191218176    -0.031598235494928
     0.018985053383745     0.015373588599833     0.004516492946689
2 41
    -0.089604106310113    -0.025758834674176    -0.112378537574775
    -0.016278863770241    -0.073409108131078    -0.043666945183473
     0.022319716215271    -0.001095993663063    -0.012262605479369
2 42
    -0.031184060898120    -0.012089978345685    -0.014347266689427
     0.014000686381088     0.003150925554570     0.013523153026676
    -0.032702596216509     0.010639424727735    -0.010624066053196
2 43
     0.029783834435135     0.003821033858997     0.007898430438867
     0.004558226836147     0.028191056422858    -0.010456061862348
     0.003193413467325     0.007266379510304     0.017890757573141
2 44
    -0.013406279415616     0.005782243254747     0.011004007992314
    -0.033654982242508    -0.019968518169989    -0.030176142356325
     0.011616597319568    -0.020993540040227    -0.016660170751534
2 45
     0.095980727929448     0.003981240408920     0.044129080862141
     0.002142286790523    -0.338141630607396    -0.733538327632273
    -0.004442944474252    -0.660533836202691    -1.072059642770833
2 46
    -0.253404721279723     0.171414768225126    -0.653859050370937
     0.187304893984477    -0.038995614852752     0.381782002969845
    -0.601044141141590     0.329400311325680    -1.047035169586322
2 47
     0.012891666315546     0.029240768655958    -0.013553051350449
     0.006753638468075    -0.023149035238852     0.021941776338012
    -0.056038400425988    -0.023707652098512    -0.037404454090444
2 48
    -0.020795268314199     0.020215393197720     0.033265781417318
     0.038175377909781    -0.025304538237718    -0.032228224559785
    -0.006123324393177    -0.019039824076003    -0.016624136238171
2 49
    -0.003955567994056    -0.012429795606276     0.042264018623575
     0.004415592095101    -0.007149041663698    -0.028582127747535
     0.019078073121712    -0.043605374395817    -0.055061485192499
2 50
    -0.006298500793892     0.001798418135497     0.010667725761604
     0.004490216046706     0.006960379525668     0.011045859006672
    -0.002951254246207     0.033400377239412     0.038253738414149
2 51
    -0.005912692466522     0.012052100099514    -0.001713272701396
     0.019181521592353    -0.053520739387773    -0.042385817657534
    -0.000874154723607     0.035289881324668    -0.006788697872930
3 1
    -0.027956630579771     0.077331480121132     0.031142896426255
     0.052764010056708    -0.100660001505592    -0.002868858439505
    -0.012024347117869     0.003776208474021     0.032509015035406
3 2
    -0.480476803956372     0.977696302614033    -0.441642284881018
     0.875860011764471    -1.523664590469583     0.125803979582461
     0.091283857009596    -0.116355802460863    -0.078728880296793
3 3
     7.346217350864584    -0.112587051017243    -0.078226570776868
    -0.112587051017243     7.506719542922378    -0.275782453087509
    -0.078226570776868    -0.275782453087509     3.547230956271489
3 4
    -0.410901849689662     0.750178204756792     0.104625485427682
     0.846145838681672    -1.313887607761961    -0.111347699324828
    -0.577878917802572     0.123109347326046    -0.065758834559547
3 5
     0.016638972296563     0.032893483714386     0.018428441186024
     0.035412327139430    -0.076556123164824     0.008563221579008
    -0.026745175149270     0.007913035090108     0.004165398898889
3 6
    -0.097743959408247     0.024206017296569     0.011858750601411
     0.053999027415206    -0.051424290063200    -0.011622598304982
     0.029256889154035    -0.019084464855275    -0.011925640268110
3 7
    -1.750750305367429     0.037368840790095    -0.091179071172014
    -0.058384044699674     0.047557887402437     0.021539276101908
     0.108934972978497     0.012244815729717    -0.064471539985834
3 8
    -0.460064987689743    -1.016449033562368     0.068031322972927
    -0.973391583610551    -1.531723591469620     0.079404804980929
     0.139937636671963     0.240089756685473     0.069007715540659
3 9
    -0.037137415439715     0.012409598421030     0.026612849260780
     0.027689802535550    -0.009418359400316    -0.019945153848098
     0.042121288427108     0.021151138709575    -0.012293684239614
3 10
    -0.082735718496611    -0.031996989015269     0.008162328192551
    -0.029762313570201    -0.034798830384138     0.007316540260128
    -0.003083604274536    -0.002268437488218     0.011790345087876
3 11
    -0.092366800869458     0.014975804909457    -0.005035419580035
     0.004882290448784     0.011169198896239     0.010284305755577
     0.004836692839949     0.002209803076583     0.016843044801818
3 12
    -0.080922861884537    -0.010870239059237     0.023157727307412
    -0.035267942078345    -0.017237567991454     0.031805896111046
    -0.001972101132274     0.007833571434909     0.004983690981770
3 13
    -0.020851601654738     0.015876834148678     0.023087902150015
    -0.005957397666516    -0.097015869312350     0.025617229098970
     0.004093394874171     0.010142793783262    -0.000809329605966
3 14
    -0.529444772126265    -1.127983946471558     0.054483593986924
    -1.069642082875160    -1.824035667875122     0.095634678037498
    -0.113510006733930    -0.195265526145199    -0.042900171092351
3 15
    -2.103623497137850     0.010675199233065     0.178464633845772
    -0.021637382333109     0.012828603967101    -0.019062829586807
    -0.168806557438887    -0.005807731842271    -0.079632686421812
3 16
    -0.112134613638225     0.045473140389729     0.014949931510043
     0.034281403997146    -0.029097067416002     0.009990975092500
     0.039729776136232     0.004552259651778     0.011640346453348
3 17
    -0.010687630217147    -0.013984597083975     0.011685668453668
    -0.029203176694474     0.041691973562509    -0.008249428283694
     0.020231695701421    -0.014754753879613     0.024219527313990
3 18
    -0.008528364902036    -0.003133476415442     0.031443465712985
     0.026672960518045    -0.002650475092085    -0.005142844499158
     0.012210889881505     0.021434115852758    -0.030509750863872
3 19
     0.018450214258749     0.010425518718653    -0.009331181306763
    -0.010022459465277    -0.012421236380609     0.021881220467009
    -0.023196338500387     0.001151926591231    -0.023626105778965
3 20
     0.034049141420898    -0.012327571086620    -0.012180640546888
    -0.015004639800372     0.046202712531417     0.020616052576947
    -0.008763513567456     0.026702229622377     0.014532571814824
3 21
    -0.094229550423081     0.005512934733885     0.018464101287818
     0.005201884523325    -0.084153797111177     0.007728281181742
     0.006760154269395     0.012666928371788    -0.033338601867262
3 22
     0.043551194807118     0.038354528645025    -0.004378998098493
     0.022280403000605    -0.006553590887178    -0.013565648739672
     0.009462326758781    -0.003450496410451     0.028830486379412
3 23
    -0.009246936103827     0.010431595106396    -0.017554260376342
     0.008581255736212    -0.010770713184172     0.002369148999915
     0.007175914915207     0.000906908020859     0.063005313083624
3 24
     0.012303483942397     0.022466358146086    -0.015152150158019
     0.032806739834249     0.017874468069842     0.015416331320460
     0.018800234473371     0.046987499979100     0.010122783565004
3 25
    -0.005194549696700     0.041287169655228    -0.010511323969789
     0.024164800823098     0.027367265170069     0.001812349596409
    -0.017381963452860    -0.007227947722872     0.033857622103499
3 26
     0.069442646578782    -0.023194167433308    -0.003678219246434
    -0.009310570469947    -0.004326876888097     0.013499336290807
    -0.013584876333749    -0.000830577462463     0.041597481442973
3 27
    -0.028742044646815     0.013032788275811    -0.001481494573937
    -0.001426341669870    -0.018930839108680     0.028225341082156
    -0.002074752303901     0.026951702130362    -0.028705659122607
3 28
    -0.032373753656217     0.005070117652106     0.035889439280828
     0.009101916623141    -0.029111404258969    -0.017698918445861
     0.024753355007736    -0.008188357596785    -0.058550845053327
3 29
     0.028220387929118     0.013011613221562    -0.042758334109994
     0.011977210261475    -0.018145591446777    -0.007659667661781
    -0.011033453902108     0.007933723929334     0.053249356652527
3 30
     0.017313706143905     0.013815142048300     0.001074849809779
    -0.005731201077690    -0.010549966363728     0.012735497690383
     0.008220055176149     0.021278472443822    -0.048612342182068
3 31
    -0.030949603854069     0.029011246564383    -0.012782795751758
     0.043260167815218    -0.001639407853005    -0.010354845935066
     0.028579383621056     0.008353899511556     0.035290437973404
3 32
    -0.019527068730466     0.005755062014924    -0.003965249914859
    -0.001878048426315    -0.014842275183771     0.011306301132305
    -0.015733088707356     0.013289660612430    -0.001466141099559
3 33
    -0.005412111418734     0.046627888068123    -0.039098572833858
     0.041890877108059    -0.067389490542144    -0.016818718450204
     0.008344877232793     0.014565488831866     0.005692821291864
3 34
    -0.097821186994359     0.027669225499778     0.131499239749680
     0.023649275094830    -0.078305738022909    -0.023867549238876
    -0.004063688956344     0.024295033646919    -0.009327829803211
3 35
    -0.247034456856807    -0.136875436258746     0.710618263267964
    -0.196939962280477    -0.052433110832871     0.403508986671380
     0.591884965549311     0.339019152520309    -1.020901109518757
3 36
    -0.038194051686747     0.009705254864564     0.009968736605394
     0.047426838153391    -0.089944579029744     0.097518100829865
    -0.022108535090379     0.003060237352565    -0.015852739204213
3 37
     0.000209163462552    -0.041424355093865     0.050009261342867
    -0.018395646372758    -0.039463062495544    -0.000113353102286
    -0.011055440181421    -0.009179505620419    -0.016891684504646
3 38
    -0.060263491969209    -0.013308812804177     0.017973627333579
     0.004389437421038     0.024830340786376     0.027549439798743
    -0.001556202682203    -0.025189848694140    -0.018245010718548
3 39
    -0.046907297901086     0.020876401220974     0.041119183664943
    -0.002386309530126     0.009705735879426     0.006414861000822
     0.027735818757319    -0.009180090638494    -0.036759257155708
3 40
    -0.010942339286927    -0.019569421439044     0.035377577065752
    -0.046301973198287    -0.029822656234617     0.037385348700142
     0.041977763992615     0.000914214246600    -0.035183650073964
3 41
     0.008729798325752    -0.006012134557729     0.012763232747317
    -0.033837825091829    -0.019957785038366    -0.047669285244311
     0.005139706202193    -0.000219368777867    -0.012798375433125
3 42
    -0.106440115294544    -0.035732207222808    -0.100120128625067
    -0.008269633507978    -0.032611130590484    -0.029940723282550
    -0.017181096846658     0.020462965046981    -0.001370538745720
3 43
    -0.047778293612358    -0.018070030512161    -0.025662249489971
     0.031038563002652     0.014201651790344     0.021793020541884
    -0.036603494143077     0.026751176134684    -0.024854206923771
3 44
     0.024706077747004     0.014068044062248     0.005491598474656
     0.016597043401080     0.020705466739588    -0.006676951698674