       N       E                     dE             d eps       ncg     rms          rms(c)
DAV:   1     0.510339044684E+04    0.51034E+04   -0.21904E+05  3240   0.198E+03
DAV:   2     0.566436066478E+03   -0.45370E+04   -0.43822E+04  3240   0.449E+02
DAV:   3    -0.149538960700E+03   -0.71598E+03   -0.65795E+03  3312   0.224E+02
DAV:   4    -0.215696333312E+03   -0.66157E+02   -0.60558E+02  4512   0.802E+01
DAV:   5    -0.220197045436E+03   -0.45007E+01   -0.43999E+01  4816   0.166E+01    0.540E+01
RMM:   6    -0.201209569450E+03    0.18987E+02   -0.50432E+02  3251   0.106E+02    0.341E+01
RMM:   7    -0.178209494118E+03    0.23000E+02   -0.11197E+02  3241   0.543E+01    0.784E+00
RMM:   8    -0.176923475580E+03    0.12860E+01   -0.70564E+00  3471   0.855E+00    0.557E+00
RMM:   9    -0.176574511751E+03    0.34896E+00   -0.24029E+00  3277   0.588E+00    0.302E+00
RMM:  10    -0.176464933146E+03    0.10958E+00   -0.89198E-01  3492   0.302E+00    0.229E+00
RMM:  11    -0.176432535678E+03    0.32397E-01   -0.30454E-01  3306   0.177E+00    0.135E+00
RMM:  12    -0.176406889883E+03    0.25646E-01   -0.19605E-01  3294   0.169E+00    0.784E-01
RMM:  13    -0.176396713165E+03    0.10177E-01   -0.71682E-02  3564   0.828E-01    0.332E-01
RMM:  14    -0.176394592204E+03    0.21210E-02   -0.27382E-02  3809   0.415E-01    0.254E-01
RMM:  15    -0.176392156634E+03    0.24356E-02   -0.70478E-03  3310   0.285E-01    0.191E-01
RMM:  16    -0.176390218038E+03    0.19386E-02   -0.35341E-03  3322   0.188E-01    0.867E-02
RMM:  17    -0.176390271169E+03   -0.53132E-04   -0.15189E-03  3407   0.128E-01    0.669E-02
RMM:  18    -0.176390691137E+03   -0.41997E-03   -0.75510E-04  3280   0.927E-02    0.425E-02
RMM:  19    -0.176391566134E+03   -0.87500E-03   -0.72288E-04  3379   0.632E-02    0.372E-02
RMM:  20    -0.176391899099E+03   -0.33296E-03   -0.26774E-04  3241   0.560E-02    0.200E-02
RMM:  21    -0.176392356670E+03   -0.45757E-03   -0.15543E-04  3243   0.311E-02    0.156E-02
RMM:  22    -0.176392857283E+03   -0.50061E-03   -0.83999E-05  2854   0.264E-02    0.164E-02
RMM:  23    -0.176393183350E+03   -0.32607E-03   -0.61793E-05  2503   0.216E-02    0.913E-03
RMM:  24    -0.176393411401E+03   -0.22805E-03   -0.18567E-05  1987   0.136E-02    0.761E-03
RMM:  25    -0.176393623113E+03   -0.21171E-03   -0.11841E-05  1927   0.118E-02    0.548E-03
RMM:  26    -0.176393861824E+03   -0.23871E-03   -0.12736E-05  1941   0.913E-03    0.286E-03
RMM:  27    -0.176393902187E+03   -0.40363E-04   -0.28536E-06  1876   0.582E-03    0.174E-03
RMM:  28    -0.176393948514E+03   -0.46327E-04   -0.27749E-06  1887   0.352E-03    0.152E-03
RMM:  29    -0.176393966592E+03   -0.18078E-04   -0.13393E-06  1845   0.308E-03    0.808E-04
RMM:  30    -0.176393969291E+03   -0.26986E-05   -0.37042E-07  1479   0.192E-03
   1 F= -.17639397E+03 E0= -.17637187E+03  d E =-.663048E-01
       N       E                     dE             d eps       ncg     rms          rms(c)
DAV:   1    -0.176390567386E+03    0.33992E-02   -0.12769E+00  3416   0.204E+00    0.665E-02
RMM:   2    -0.176391927315E+03   -0.13599E-02   -0.14274E-02  3253   0.523E-01    0.642E-02
RMM:   3    -0.176392623263E+03   -0.69595E-03   -0.76917E-03  4498   0.228E-01    0.560E-02
RMM:   4    -0.176392608545E+03    0.14718E-04   -0.26540E-04  3318   0.386E-02    0.475E-02
RMM:   5    -0.176392582431E+03    0.26115E-04   -0.49037E-05  2643   0.288E-02    0.391E-02
RMM:   6    -0.176392556174E+03    0.26257E-04   -0.11329E-04  3406   0.346E-02    0.205E-02
RMM:   7    -0.176392554840E+03    0.13335E-05   -0.37551E-05  2413   0.231E-02
   2 F= -.17639255E+03 E0= -.17637051E+03  d E =-.661430E-01
       N       E                     dE             d eps       ncg     rms          rms(c)
DAV:   1    -0.176389126377E+03    0.34298E-02   -0.25569E+00  3352   0.290E+00    0.100E-01
RMM:   2    -0.176391943535E+03   -0.28172E-02   -0.29778E-02  3256   0.745E-01    0.117E-01
RMM:   3    -0.176393367520E+03   -0.14240E-02   -0.16634E-02  4527   0.339E-01    0.809E-02
RMM:   4    -0.176393340455E+03    0.27065E-04   -0.53091E-04  3302   0.525E-02    0.720E-02
RMM:   5    -0.176393281978E+03    0.58477E-04   -0.12260E-04  3144   0.484E-02    0.596E-02
RMM:   6    -0.176393213580E+03    0.68398E-04   -0.25923E-04  3666   0.500E-02    0.304E-02
RMM:   7    -0.176393208629E+03    0.49510E-05   -0.69667E-05  2999   0.333E-02
   3 F= -.17639321E+03 E0= -.17637110E+03  d E =-.663363E-01
       N       E                     dE             d eps       ncg     rms          rms(c)
DAV:   1    -0.176389662090E+03    0.35515E-02   -0.25670E+00  3320   0.290E+00    0.949E-02
RMM:   2    -0.176392302256E+03   -0.26402E-02   -0.27862E-02  3250   0.732E-01    0.834E-02
RMM:   3    -0.176393663367E+03   -0.13611E-02   -0.14878E-02  4558   0.318E-01    0.867E-02
RMM:   4    -0.176393608954E+03    0.54413E-04   -0.48493E-04  3972   0.511E-02    0.703E-02
RMM:   5    -0.176393557713E+03    0.51241E-04   -0.59545E-05  2509   0.303E-02    0.566E-02
RMM:   6    -0.176393506390E+03    0.51324E-04   -0.28376E-04  4128   0.502E-02    0.348E-02
RMM:   7    -0.176393495558E+03    0.10832E-04   -0.61067E-05  3011   0.318E-02    0.198E-02
RMM:   8    -0.176393491654E+03    0.39043E-05   -0.15044E-05  1875   0.148E-02
   4 F= -.17639349E+03 E0= -.17637139E+03  d E =-.663137E-01
       N       E                     dE             d eps       ncg     rms          rms(c)
DAV:   1    -0.176389249427E+03    0.42461E-02   -0.25615E+00  3384   0.292E+00    0.129E-01
RMM:   2    -0.176392175411E+03   -0.29260E-02   -0.31744E-02  3252   0.779E-01    0.171E-01
RMM:   3    -0.176393337519E+03   -0.11621E-02   -0.16774E-02  4429   0.367E-01    0.826E-02
RMM:   4    -0.176393342225E+03   -0.47053E-05   -0.97130E-04  3595   0.675E-02    0.740E-02
RMM:   5    -0.176393288651E+03    0.53574E-04   -0.13122E-04  3182   0.485E-02    0.626E-02
RMM:   6    -0.176393209852E+03    0.78799E-04   -0.24179E-04  3498   0.535E-02    0.280E-02
RMM:   7    -0.176393207895E+03    0.19568E-05   -0.90396E-05  3163   0.370E-02
   5 F= -.17639321E+03 E0= -.17637111E+03  d E =-.662823E-01
       N       E                     dE             d eps       ncg     rms          rms(c)
DAV:   1    -0.176388927497E+03    0.42824E-02   -0.25551E+00  3304   0.285E+00    0.101E-01
RMM:   2    -0.176391744950E+03   -0.28175E-02   -0.29757E-02  3257   0.736E-01    0.120E-01
RMM:   3    -0.176393149144E+03   -0.14042E-02   -0.16544E-02  4536   0.333E-01    0.797E-02
RMM:   4    -0.176393121804E+03    0.27340E-04   -0.51914E-04  3264   0.515E-02    0.707E-02
RMM:   5    -0.176393060043E+03    0.61761E-04   -0.12064E-04  3080   0.469E-02    0.573E-02
RMM:   6    -0.176392998096E+03    0.61946E-04   -0.27690E-04  3709   0.521E-02    0.279E-02
RMM:   7    -0.176392992629E+03    0.54671E-05   -0.57160E-05  2843   0.307E-02
   6 F= -.17639299E+03 E0= -.17637090E+03  d E =-.662799E-01
       N       E                     dE             d eps       ncg     rms          rms(c)
DAV:   1    -0.176388727704E+03    0.42704E-02   -0.25659E+00  3344   0.284E+00    0.931E-02
RMM:   2    -0.176391368887E+03   -0.26412E-02   -0.27783E-02  3255   0.716E-01    0.872E-02
RMM:   3    -0.176392717640E+03   -0.13488E-02   -0.14848E-02  4531   0.310E-01    0.844E-02
RMM:   4    -0.176392667123E+03    0.50517E-04   -0.44985E-04  3518   0.495E-02    0.692E-02
RMM:   5    -0.176392605895E+03    0.61229E-04   -0.91226E-05  2928   0.383E-02    0.536E-02
RMM:   6    -0.176392561124E+03    0.44771E-04   -0.28496E-04  3879   0.517E-02    0.317E-02
RMM:   7    -0.176392552458E+03    0.86657E-05   -0.57537E-05  2947   0.315E-02
   7 F= -.17639255E+03 E0= -.17637053E+03  d E =-.660688E-01
       N       E                     dE             d eps       ncg     rms          rms(c)
DAV:   1    -0.176390534980E+03    0.20261E-02   -0.25618E+00  3352   0.291E+00    0.129E-01
RMM:   2    -0.176393453014E+03   -0.29180E-02   -0.31630E-02  3253   0.776E-01    0.171E-01
RMM:   3    -0.176394603906E+03   -0.11509E-02   -0.16685E-02  4445   0.364E-01    0.829E-02
RMM:   4    -0.176394602401E+03    0.15053E-05   -0.90990E-04  3769   0.657E-02    0.740E-02
RMM:   5    -0.176394552204E+03    0.50197E-04   -0.11760E-04  3112   0.450E-02    0.638E-02
RMM:   6    -0.176394469914E+03    0.82290E-04   -0.24031E-04  3542   0.531E-02    0.297E-02
RMM:   7    -0.176394466790E+03    0.31231E-05   -0.94325E-05  3187   0.384E-02
   8 F= -.17639447E+03 E0= -.17637237E+03  d E =-.662917E-01
       N       E                     dE             d eps       ncg     rms          rms(c)
DAV:   1    -0.176390986323E+03    0.34836E-02   -0.25560E+00  3296   0.289E+00    0.997E-02
RMM:   2    -0.176393805889E+03   -0.28196E-02   -0.29737E-02  3254   0.746E-01    0.119E-01
RMM:   3    -0.176395214771E+03   -0.14089E-02   -0.16555E-02  4527   0.338E-01    0.786E-02
RMM:   4    -0.176395191641E+03    0.23130E-04   -0.54054E-04  3329   0.530E-02    0.697E-02
RMM:   5    -0.176395141141E+03    0.50500E-04   -0.11442E-04  3027   0.459E-02    0.591E-02
RMM:   6    -0.176395072883E+03    0.68258E-04   -0.25709E-04  3715   0.500E-02    0.284E-02
RMM:   7    -0.176395068947E+03    0.39359E-05   -0.64615E-05  2993   0.325E-02
   9 F= -.17639507E+03 E0= -.17637302E+03  d E =-.661575E-01
       N       E                     dE             d eps       ncg     rms          rms(c)
DAV:   1    -0.176391138725E+03    0.39342E-02   -0.25672E+00  3288   0.289E+00    0.920E-02
RMM:   2    -0.176393806246E+03   -0.26675E-02   -0.28011E-02  3248   0.733E-01    0.897E-02
RMM:   3    -0.176395162622E+03   -0.13564E-02   -0.14986E-02  4550   0.318E-01    0.834E-02
RMM:   4    -0.176395118794E+03    0.43829E-04   -0.45065E-04  3550   0.501E-02    0.699E-02
RMM:   5    -0.176395068377E+03    0.50416E-04   -0.85964E-05  2868   0.376E-02    0.582E-02
RMM:   6    -0.176395013461E+03    0.54917E-04   -0.27835E-04  3951   0.503E-02    0.347E-02
RMM:   7    -0.176395002917E+03    0.10544E-04   -0.68997E-05  3086   0.342E-02    0.191E-02
RMM:   8    -0.176394999182E+03    0.37347E-05   -0.16627E-05  1876   0.141E-02
  10 F= -.17639500E+03 E0= -.17637296E+03  d E =-.661195E-01
       N       E                     dE             d eps       ncg     rms          rms(c)
DAV:   1    -0.176391081189E+03    0.39217E-02   -0.25637E+00  3368   0.293E+00    0.128E-01
RMM:   2    -0.176394028235E+03   -0.29470E-02   -0.31790E-02  3257   0.778E-01    0.172E-01
RMM:   3    -0.176395206983E+03   -0.11787E-02   -0.16981E-02  4436   0.370E-01    0.811E-02
RMM:   4    -0.176395213736E+03   -0.67532E-05   -0.96503E-04  3562   0.675E-02    0.729E-02
RMM:   5    -0.176395167448E+03    0.46288E-04   -0.12597E-04  3151   0.476E-02    0.631E-02
RMM:   6    -0.176395082614E+03    0.84834E-04   -0.21709E-04  3451   0.511E-02    0.272E-02
RMM:   7    -0.176395082978E+03   -0.36482E-06   -0.96018E-05  3168   0.369E-02
  11 F= -.17639508E+03 E0= -.17637301E+03  d E =-.662097E-01
       N       E                     dE             d eps       ncg     rms          rms(c)
DAV:   1    -0.176389602923E+03    0.54797E-02   -0.25581E+00  3264   0.289E+00    0.102E-01
RMM:   2    -0.176392455773E+03   -0.28528E-02   -0.30109E-02  3260   0.749E-01    0.125E-01
RMM:   3    -0.176393841918E+03   -0.13861E-02   -0.16636E-02  4522   0.341E-01    0.779E-02
RMM:   4    -0.176393823799E+03    0.18119E-04   -0.56322E-04  3308   0.536E-02    0.700E-02
RMM:   5    -0.176393771379E+03    0.52420E-04   -0.11383E-04  3078   0.464E-02    0.579E-02
RMM:   6    -0.176393703848E+03    0.67530E-04   -0.24144E-04  3672   0.484E-02    0.277E-02
RMM:   7    -0.176393700383E+03    0.34656E-05   -0.62495E-05  2930   0.314E-02
  12 F= -.17639370E+03 E0= -.17637161E+03  d E =-.662651E-01
       N       E                     dE             d eps       ncg     rms          rms(c)
DAV:   1    -0.176390621011E+03    0.30828E-02   -0.25699E+00  3284   0.290E+00    0.924E-02
RMM:   2    -0.176393264073E+03   -0.26431E-02   -0.27806E-02  3249   0.730E-01    0.842E-02
RMM:   3    -0.176394616181E+03   -0.13521E-02   -0.14827E-02  4554   0.316E-01    0.832E-02
RMM:   4    -0.176394572147E+03    0.44034E-04   -0.45707E-04  3645   0.500E-02    0.689E-02
RMM:   5    -0.176394520583E+03    0.51565E-04   -0.70662E-05  2622   0.333E-02    0.542E-02
RMM:   6    -0.176394472916E+03    0.47666E-04   -0.27796E-04  4079   0.472E-02    0.319E-02
RMM:   7    -0.176394464753E+03    0.81640E-05   -0.51407E-05  2791   0.289E-02
  13 F= -.17639446E+03 E0= -.17637237E+03  d E =-.662926E-01
       N       E                     dE             d eps       ncg     rms          rms(c)
DAV:   1    -0.176392074909E+03    0.23980E-02   -0.25523E+00  3368   0.298E+00    0.157E-01
RMM:   2    -0.176395240624E+03   -0.31657E-02   -0.33692E-02  3266   0.812E-01    0.225E-01
RMM:   3    -0.176396102294E+03   -0.86167E-03   -0.16662E-02  4257   0.388E-01    0.918E-02
RMM:   4    -0.176396186439E+03   -0.84145E-04   -0.20735E-03  4489   0.101E-01    0.822E-02
RMM:   5    -0.176396141539E+03    0.44900E-04   -0.84423E-05  2907   0.312E-02    0.707E-02
RMM:   6    -0.176396062139E+03    0.79400E-04   -0.27473E-04  3647   0.546E-02    0.436E-02
RMM:   7    -0.176396045738E+03    0.16401E-04   -0.14041E-04  3231   0.483E-02    0.217E-02
RMM:   8    -0.176396044161E+03    0.15770E-05   -0.43744E-05  2437   0.224E-02
  14 F= -.17639604E+03 E0= -.17637399E+03  d E =-.661520E-01
       N       E                     dE             d eps       ncg     rms          rms(c)
DAV:   1    -0.176389423318E+03    0.66224E-02   -0.25438E+00  3280   0.290E+00    0.129E-01
RMM:   2    -0.176392035840E+03   -0.26125E-02   -0.28394E-02  3280   0.712E-01    0.871E-02
RMM:   3    -0.176393457068E+03   -0.14212E-02   -0.15163E-02  4533   0.317E-01    0.102E-01
RMM:   4    -0.176393363261E+03    0.93807E-04   -0.63433E-04  3658   0.722E-02    0.643E-02
RMM:   5    -0.176393331822E+03    0.31439E-04   -0.12808E-04  3197   0.389E-02    0.533E-02
RMM:   6    -0.176393302052E+03    0.29770E-04   -0.17138E-04  3378   0.445E-02    0.351E-02
RMM:   7    -0.176393290020E+03    0.12032E-04   -0.90085E-05  3185   0.373E-02    0.164E-02
RMM:   8    -0.176393287764E+03    0.22560E-05   -0.30275E-05  2144   0.207E-02
  15 F= -.17639329E+03 E0= -.17637119E+03  d E =-.662854E-01
       N       E                     dE             d eps       ncg     rms          rms(c)
DAV:   1    -0.176392319351E+03    0.97067E-03   -0.25400E+00  3276   0.289E+00    0.142E-01
RMM:   2    -0.176395151438E+03   -0.28321E-02   -0.29714E-02  3266   0.753E-01    0.183E-01
RMM:   3    -0.176396103895E+03   -0.95246E-03   -0.14702E-02  4351   0.334E-01    0.957E-02
RMM:   4    -0.176396061959E+03    0.41936E-04   -0.10099E-03  4241   0.722E-02    0.745E-02
RMM:   5    -0.176396024639E+03    0.37320E-04   -0.15002E-04  3254   0.468E-02    0.666E-02
RMM:   6    -0.176395956514E+03    0.68125E-04   -0.19464E-04  3388   0.498E-02    0.296E-02
RMM:   7    -0.176395948449E+03    0.80651E-05   -0.75813E-05  2996   0.348E-02
  16 F= -.17639595E+03 E0= -.17637387E+03  d E =-.662379E-01
       N       E                     dE             d eps       ncg     rms          rms(c)
DAV:   1    -0.176388500063E+03    0.74565E-02   -0.25411E+00  3392   0.297E+00    0.116E-01
RMM:   2    -0.176391231577E+03   -0.27315E-02   -0.29606E-02  3272   0.738E-01    0.111E-01
RMM:   3    -0.176392749080E+03   -0.15175E-02   -0.17080E-02  4533   0.350E-01    0.940E-02
RMM:   4    -0.176392687915E+03    0.61164E-04   -0.70110E-04  4195   0.619E-02    0.754E-02
RMM:   5    -0.176392650885E+03    0.37030E-04   -0.77088E-05  2895   0.332E-02    0.675E-02
RMM:   6    -0.176392567160E+03    0.83726E-04   -0.21417E-04  3696   0.452E-02    0.289E-02
RMM:   7    -0.176392565544E+03    0.16159E-05   -0.10764E-04  3269   0.392E-02    0.199E-02
RMM:   8    -0.176392563258E+03    0.22852E-05   -0.36644E-05  2350   0.219E-02
  17 F= -.17639256E+03 E0= -.17637044E+03  d E =-.663649E-01
       N       E                     dE             d eps       ncg     rms          rms(c)
DAV:   1    -0.176389128890E+03    0.34367E-02   -0.25586E+00  3280   0.290E+00    0.104E-01
RMM:   2    -0.176391990773E+03   -0.28619E-02   -0.30226E-02  3253   0.751E-01    0.127E-01
RMM:   3    -0.176393387453E+03   -0.13967E-02   -0.16773E-02  4524   0.343E-01    0.794E-02
RMM:   4    -0.176393364031E+03    0.23422E-04   -0.55028E-04  3319   0.532E-02    0.708E-02
RMM:   5    -0.176393307358E+03    0.56673E-04   -0.12326E-04  3106   0.482E-02    0.590E-02
RMM:   6    -0.176393238871E+03    0.68487E-04   -0.25979E-04  3676   0.510E-02    0.272E-02
RMM:   7    -0.176393235109E+03    0.37623E-05   -0.62255E-05  2912   0.319E-02
  18 F= -.17639324E+03 E0= -.17637117E+03  d E =-.661869E-01
       N       E                     dE             d eps       ncg     rms          rms(c)
DAV:   1    -0.176390075930E+03    0.31629E-02   -0.25663E+00  3272   0.290E+00    0.941E-02
RMM:   2    -0.176392726654E+03   -0.26507E-02   -0.27915E-02  3255   0.732E-01    0.812E-02
RMM:   3    -0.176394110836E+03   -0.13842E-02   -0.15041E-02  4549   0.319E-01    0.876E-02
RMM:   4    -0.176394058170E+03    0.52666E-04   -0.51371E-04  4134   0.529E-02    0.705E-02
RMM:   5    -0.176394014938E+03    0.43231E-04   -0.50595E-05  2317   0.275E-02    0.593E-02
RMM:   6    -0.176393954129E+03    0.60810E-04   -0.29840E-04  4188   0.511E-02    0.341E-02
RMM:   7    -0.176393946417E+03    0.77114E-05   -0.68674E-05  3099   0.341E-02
  19 F= -.17639395E+03 E0= -.17637188E+03  d E =-.662011E-01
       N       E                     dE             d eps       ncg     rms          rms(c)
DAV:   1    -0.176388149041E+03    0.58051E-02   -0.25626E+00  3348   0.293E+00    0.128E-01
RMM:   2    -0.176391073705E+03   -0.29247E-02   -0.31592E-02  3253   0.780E-01    0.170E-01
RMM:   3    -0.176392236043E+03   -0.11623E-02   -0.16682E-02  4460   0.365E-01    0.842E-02
RMM:   4    -0.176392229829E+03    0.62141E-05   -0.84942E-04  3730   0.642E-02    0.755E-02
RMM:   5    -0.176392184051E+03    0.45778E-04   -0.12130E-04  3145   0.462E-02    0.665E-02
RMM:   6    -0.176392092782E+03    0.91268E-04   -0.23679E-04  3544   0.525E-02    0.287E-02
RMM:   7    -0.176392090277E+03    0.25058E-05   -0.96627E-05  3189   0.384E-02
  20 F= -.17639209E+03 E0= -.17637001E+03  d E =-.662388E-01
       N       E                     dE             d eps       ncg     rms          rms(c)
DAV:   1    -0.176390959374E+03    0.11334E-02   -0.25575E+00  3292   0.289E+00    0.971E-02
RMM:   2    -0.176393779023E+03   -0.28196E-02   -0.29585E-02  3253   0.741E-01    0.112E-01
RMM:   3    -0.176395228013E+03   -0.14490E-02   -0.16673E-02  4530   0.338E-01    0.795E-02
RMM:   4    -0.176395203026E+03    0.24987E-04   -0.52290E-04  3351   0.528E-02    0.704E-02
RMM:   5    -0.176395152229E+03    0.50797E-04   -0.11727E-04  3083   0.465E-02    0.600E-02
RMM:   6    -0.176395081296E+03    0.70933E-04   -0.27368E-04  3783   0.497E-02    0.272E-02
RMM:   7    -0.176395078033E+03    0.32635E-05   -0.58296E-05  2836   0.307E-02
  21 F= -.17639508E+03 E0= -.17637302E+03  d E =-.661888E-01
       N       E                     dE             d eps       ncg     rms          rms(c)
DAV:   1    -0.176391128753E+03    0.39525E-02   -0.25674E+00  3276   0.289E+00    0.919E-02
RMM:   2    -0.176393795053E+03   -0.26663E-02   -0.27999E-02  3249   0.733E-01    0.890E-02
RMM:   3    -0.176395149121E+03   -0.13541E-02   -0.14954E-02  4549   0.317E-01    0.835E-02
RMM:   4    -0.176395105817E+03    0.43304E-04   -0.45356E-04  3563   0.504E-02    0.700E-02
RMM:   5    -0.176395053036E+03    0.52781E-04   -0.83927E-05  2851   0.370E-02    0.572E-02
RMM:   6    -0.176394999768E+03    0.53268E-04   -0.29296E-04  4009   0.513E-02    0.338E-02
RMM:   7    -0.176394990158E+03    0.96100E-05   -0.63085E-05  3038   0.328E-02
  22 F= -.17639499E+03 E0= -.17637297E+03  d E =-.660689E-01
       N       E                     dE             d eps       ncg     rms          rms(c)
DAV:   1    -0.176389287505E+03    0.57123E-02   -0.25632E+00  3344   0.294E+00    0.127E-01
RMM:   2    -0.176392231000E+03   -0.29435E-02   -0.31660E-02  3260   0.782E-01    0.167E-01
RMM:   3    -0.176393426748E+03   -0.11957E-02   -0.16776E-02  4448   0.366E-01    0.851E-02
RMM:   4    -0.176393427401E+03   -0.65295E-06   -0.94744E-04  3913   0.672E-02    0.761E-02
RMM:   5    -0.176393386594E+03    0.40808E-04   -0.10850E-04  3045   0.423E-02    0.681E-02
RMM:   6    -0.176393289779E+03    0.96815E-04   -0.23071E-04  3582   0.506E-02    0.303E-02
RMM:   7    -0.176393287765E+03    0.20135E-05   -0.98817E-05  3198   0.378E-02
  23 F= -.17639329E+03 E0= -.17637117E+03  d E =-.663401E-01
       N       E                     dE             d eps       ncg     rms          rms(c)
DAV:   1    -0.176389877752E+03    0.34120E-02   -0.25584E+00  3284   0.289E+00    0.992E-02
RMM:   2    -0.176392709063E+03   -0.28313E-02   -0.29678E-02  3258   0.730E-01    0.101E-01
RMM:   3    -0.176394259781E+03   -0.15507E-02   -0.17097E-02  4549   0.337E-01    0.872E-02
RMM:   4    -0.176394217922E+03    0.41859E-04   -0.56408E-04  3586   0.546E-02    0.737E-02
RMM:   5    -0.176394157390E+03    0.60532E-04   -0.10393E-04  3123   0.414E-02    0.603E-02
RMM:   6    -0.176394093023E+03    0.64367E-04   -0.29005E-04  3851   0.504E-02    0.319E-02
RMM:   7    -0.176394087010E+03    0.60131E-05   -0.66210E-05  2958   0.324E-02
  24 F= -.17639409E+03 E0= -.17637197E+03  d E =-.663482E-01
       N       E                     dE             d eps       ncg     rms          rms(c)
DAV:   1    -0.176422700930E+03   -0.28608E-01   -0.25558E+00  3264   0.285E+00    0.105E-01
RMM:   2    -0.176425547509E+03   -0.28466E-02   -0.29924E-02  3260   0.744E-01    0.131E-01
RMM:   3    -0.176426861005E+03   -0.13135E-02   -0.15919E-02  4471   0.330E-01    0.828E-02
RMM:   4    -0.176426840487E+03    0.20518E-04   -0.60778E-04  3678   0.562E-02    0.728E-02
RMM:   5    -0.176426800870E+03    0.39617E-04   -0.74377E-05  2599   0.340E-02    0.639E-02
RMM:   6    -0.176426724427E+03    0.76443E-04   -0.23641E-04  3763   0.476E-02    0.377E-02
RMM:   7    -0.176426709724E+03    0.14703E-04   -0.86298E-05  3103   0.377E-02    0.177E-02
RMM:   8    -0.176426708249E+03    0.14745E-05   -0.23350E-05  1969   0.161E-02
  25 F= -.17642671E+03 E0= -.17640461E+03  d E =-.662912E-01
       N       E                     dE             d eps       ncg     rms          rms(c)
DAV:   1    -0.176385559608E+03    0.41150E-01   -0.25408E+00  3412   0.294E+00    0.122E-01
RMM:   2    -0.176388383682E+03   -0.28241E-02   -0.30103E-02  3279   0.738E-01    0.115E-01
RMM:   3    -0.176389864431E+03   -0.14807E-02   -0.16662E-02  4500   0.339E-01    0.966E-02
RMM:   4    -0.176389805095E+03    0.59336E-04   -0.75448E-04  4112   0.634E-02    0.753E-02
RMM:   5    -0.176389750525E+03    0.54570E-04   -0.10068E-04  3221   0.392E-02    0.620E-02
RMM:   6    -0.176389692779E+03    0.57746E-04   -0.24358E-04  3574   0.540E-02    0.357E-02
RMM:   7    -0.176389680996E+03    0.11784E-04   -0.87047E-05  3164   0.366E-02    0.135E-02
RMM:   8    -0.176389681786E+03   -0.79052E-06   -0.33802E-05  2188   0.174E-02
  26 F= -.17638968E+03 E0= -.17636754E+03  d E =-.664115E-01
       N       E                     dE             d eps       ncg     rms          rms(c)
DAV:   1    -0.176389535815E+03    0.14518E-03   -0.25475E+00  3268   0.289E+00    0.146E-01
RMM:   2    -0.176392386833E+03   -0.28510E-02   -0.30113E-02  3255   0.752E-01    0.182E-01
RMM:   3    -0.176393456282E+03   -0.10694E-02   -0.15654E-02  4377   0.346E-01    0.101E-01
RMM:   4    -0.176393412822E+03    0.43460E-04   -0.10392E-03  4235   0.713E-02    0.783E-02
RMM:   5    -0.176393366216E+03    0.46606E-04   -0.13870E-04  3246   0.442E-02    0.696E-02
RMM:   6    -0.176393290417E+03    0.75799E-04   -0.22729E-04  3449   0.538E-02    0.344E-02
RMM:   7    -0.176393277364E+03    0.13053E-04   -0.79089E-05  3005   0.358E-02    0.112E-02
RMM:   8    -0.176393278714E+03   -0.13501E-05   -0.30034E-05  2141   0.160E-02
  27 F= -.17639328E+03 E0= -.17637118E+03  d E =-.662864E-01
       N       E                     dE             d eps       ncg     rms          rms(c)
DAV:   1    -0.176392323571E+03    0.95379E-03   -0.25421E+00  3272   0.289E+00    0.144E-01
RMM:   2    -0.176395178406E+03   -0.28548E-02   -0.29964E-02  3265   0.756E-01    0.188E-01
RMM:   3    -0.176396105743E+03   -0.92734E-03   -0.14745E-02  4316   0.337E-01    0.960E-02
RMM:   4    -0.176396072248E+03    0.33495E-04   -0.11054E-03  4274   0.753E-02    0.751E-02
RMM:   5    -0.176396031536E+03    0.40712E-04   -0.14364E-04  3251   0.453E-02    0.656E-02
RMM:   6    -0.176395966866E+03    0.64670E-04   -0.19755E-04  3392   0.498E-02    0.320E-02
RMM:   7    -0.176395956815E+03    0.10051E-04   -0.80522E-05  3025   0.363E-02    0.112E-02
RMM:   8    -0.176395958431E+03   -0.16160E-05   -0.32394E-05  2170   0.171E-02
  28 F= -.17639596E+03 E0= -.17637389E+03  d E =-.662136E-01
       N       E                     dE             d eps       ncg     rms          rms(c)
DAV:   1    -0.176389175363E+03    0.67815E-02   -0.25434E+00  3368   0.296E+00    0.116E-01
RMM:   2    -0.176391926365E+03   -0.27510E-02   -0.29736E-02  3268   0.737E-01    0.113E-01
RMM:   3    -0.176393434787E+03   -0.15084E-02   -0.17108E-02  4517   0.350E-01    0.911E-02
RMM:   4    -0.176393384534E+03    0.50253E-04   -0.72969E-04  4163   0.626E-02    0.745E-02
RMM:   5    -0.176393347844E+03    0.36691E-04   -0.82938E-05  2884   0.348E-02    0.662E-02
RMM:   6    -0.176393270061E+03    0.77783E-04   -0.20798E-04  3647   0.447E-02    0.301E-02
RMM:   7    -0.176393267985E+03    0.20758E-05   -0.10724E-04  3262   0.390E-02    0.204E-02
RMM:   8    -0.176393265307E+03    0.26789E-05   -0.36486E-05  2352   0.223E-02
  29 F= -.17639327E+03 E0= -.17637117E+03  d E =-.662820E-01
       N       E                     dE             d eps       ncg     rms          rms(c)
DAV:   1    -0.176386252566E+03    0.70154E-02   -0.25621E+00  3252   0.288E+00    0.102E-01
RMM:   2    -0.176389104084E+03   -0.28515E-02   -0.30021E-02  3259   0.747E-01    0.127E-01
RMM:   3    -0.176390465103E+03   -0.13610E-02   -0.16414E-02  4536   0.336E-01    0.771E-02
RMM:   4    -0.176390444645E+03    0.20458E-04   -0.51947E-04  3279   0.518E-02    0.693E-02
RMM:   5    -0.176390395076E+03    0.49570E-04   -0.10825E-04  3036   0.452E-02    0.581E-02
RMM:   6    -0.176390326682E+03    0.68394E-04   -0.23903E-04  3706   0.484E-02    0.274E-02
RMM:   7    -0.176390323321E+03    0.33602E-05   -0.59112E-05  2841   0.304E-02
  30 F= -.17639032E+03 E0= -.17636829E+03  d E =-.661094E-01
       N       E                     dE             d eps       ncg     rms          rms(c)
DAV:   1    -0.176392532490E+03   -0.22058E-02   -0.25686E+00  3288   0.287E+00    0.904E-02
RMM:   2    -0.176395243105E+03   -0.27106E-02   -0.28284E-02  3258   0.718E-01    0.823E-02
RMM:   3    -0.176396675857E+03   -0.14328E-02   -0.15568E-02  4531   0.319E-01    0.835E-02
RMM:   4    -0.176396640347E+03    0.35510E-04   -0.52366E-04  3843   0.527E-02    0.709E-02
RMM:   5    -0.176396596469E+03    0.43878E-04   -0.61452E-05  2449   0.303E-02    0.595E-02
RMM:   6    -0.176396533603E+03    0.62866E-04   -0.34093E-04  4213   0.525E-02    0.377E-02
RMM:   7    -0.176396527978E+03    0.56252E-05   -0.63595E-05  3048   0.328E-02
  31 F= -.17639653E+03 E0= -.17637446E+03  d E =-.662067E-01
       N       E                     dE             d eps       ncg     rms          rms(c)
DAV:   1    -0.176389883717E+03    0.66499E-02   -0.25618E+00  3348   0.292E+00    0.123E-01
RMM:   2    -0.176392768116E+03   -0.28844E-02   -0.31130E-02  3252   0.774E-01    0.158E-01
RMM:   3    -0.176393995489E+03   -0.12274E-02   -0.16623E-02  4489   0.359E-01    0.844E-02
RMM:   4    -0.176393981191E+03    0.14297E-04   -0.75700E-04  3497   0.612E-02    0.755E-02
RMM:   5    -0.176393924528E+03    0.56663E-04   -0.12767E-04  3172   0.486E-02    0.641E-02
RMM:   6    -0.176393844395E+03    0.80133E-04   -0.25979E-04  3601   0.542E-02    0.299E-02
RMM:   7    -0.176393840397E+03    0.39985E-05   -0.87909E-05  3167   0.373E-02
  32 F= -.17639384E+03 E0= -.17637178E+03  d E =-.661685E-01
       N       E                     dE             d eps       ncg     rms          rms(c)
DAV:   1    -0.176389195113E+03    0.46493E-02   -0.25543E+00  3256   0.289E+00    0.101E-01
RMM:   2    -0.176392017539E+03   -0.28224E-02   -0.29803E-02  3253   0.743E-01    0.116E-01
RMM:   3    -0.176393461719E+03   -0.14442E-02   -0.16784E-02  4542   0.338E-01    0.809E-02
RMM:   4    -0.176393431774E+03    0.29944E-04   -0.51900E-04  3312   0.520E-02    0.713E-02
RMM:   5    -0.176393366073E+03    0.65702E-04   -0.12026E-04  3104   0.470E-02    0.566E-02
RMM:   6    -0.176393309216E+03    0.56856E-04   -0.28196E-04  3748   0.526E-02    0.305E-02
RMM:   7    -0.176393302215E+03    0.70010E-05   -0.61895E-05  2998   0.324E-02
  33 F= -.17639330E+03 E0= -.17637119E+03  d E =-.663381E-01
       N       E                     dE             d eps       ncg     rms          rms(c)
DAV:   1    -0.176389353416E+03    0.39558E-02   -0.25657E+00  3268   0.289E+00    0.941E-02
RMM:   2    -0.176391989141E+03   -0.26357E-02   -0.27773E-02  3252   0.730E-01    0.850E-02
RMM:   3    -0.176393343023E+03   -0.13539E-02   -0.14802E-02  4556   0.315E-01    0.868E-02
RMM:   4    -0.176393287139E+03    0.55884E-04   -0.46569E-04  3883   0.505E-02    0.700E-02
RMM:   5    -0.176393242378E+03    0.44760E-04   -0.72252E-05  2821   0.340E-02    0.599E-02
RMM:   6    -0.176393182886E+03    0.59493E-04   -0.25774E-04  3962   0.486E-02    0.341E-02
RMM:   7    -0.176393171613E+03    0.11273E-04   -0.72517E-05  3113   0.350E-02    0.181E-02
RMM:   8    -0.176393168367E+03    0.32455E-05   -0.17150E-05  1878   0.149E-02
  34 F= -.17639317E+03 E0= -.17637111E+03  d E =-.661851E-01
       N       E                     dE             d eps       ncg     rms          rms(c)
DAV:   1    -0.176387513537E+03    0.56581E-02   -0.25634E+00  3328   0.293E+00    0.133E-01
RMM:   2    -0.176390498208E+03   -0.29847E-02   -0.32287E-02  3258   0.786E-01    0.182E-01
RMM:   3    -0.176391592206E+03   -0.10940E-02   -0.16794E-02  4417   0.373E-01    0.814E-02
RMM:   4    -0.176391609744E+03   -0.17538E-04   -0.10838E-03  3671   0.703E-02    0.741E-02
RMM:   5    -0.176391561427E+03    0.48317E-04   -0.11658E-04  3143   0.451E-02    0.635E-02
RMM:   6    -0.176391476723E+03    0.84705E-04   -0.22109E-04  3485   0.520E-02    0.300E-02
RMM:   7    -0.176391475089E+03    0.16339E-05   -0.99732E-05  3194   0.377E-02
  35 F= -.17639148E+03 E0= -.17636933E+03  d E =-.664326E-01
       N       E                     dE             d eps       ncg     rms          rms(c)
DAV:   1    -0.176389563977E+03    0.19127E-02   -0.25600E+00  3256   0.290E+00    0.961E-02
RMM:   2    -0.176392374762E+03   -0.28108E-02   -0.29505E-02  3258   0.735E-01    0.106E-01
RMM:   3    -0.176393854481E+03   -0.14797E-02   -0.16799E-02  4545   0.339E-01    0.800E-02
RMM:   4    -0.176393828231E+03    0.26250E-04   -0.53173E-04  3353   0.530E-02    0.705E-02
RMM:   5    -0.176393772043E+03    0.56187E-04   -0.11135E-04  3091   0.452E-02    0.576E-02
RMM:   6    -0.176393708505E+03    0.63539E-04   -0.28241E-04  3830   0.501E-02    0.281E-02
RMM:   7    -0.176393704085E+03    0.44199E-05   -0.56900E-05  2850   0.305E-02
  36 F= -.17639370E+03 E0= -.17637163E+03  d E =-.662169E-01
       N       E                     dE             d eps       ncg     rms          rms(c)
DAV:   1    -0.176390620105E+03    0.30884E-02   -0.25705E+00  3284   0.289E+00    0.920E-02
RMM:   2    -0.176393258895E+03   -0.26388E-02   -0.27741E-02  3252   0.730E-01    0.836E-02
RMM:   3    -0.176394606916E+03   -0.13480E-02   -0.14750E-02  4557   0.315E-01    0.835E-02
RMM:   4    -0.176394563021E+03    0.43895E-04   -0.46214E-04  3770   0.501E-02    0.690E-02
RMM:   5    -0.176394514264E+03    0.48757E-04   -0.68040E-05  2594   0.327E-02    0.557E-02
RMM:   6    -0.176394462930E+03    0.51334E-04   -0.30016E-04  4150   0.498E-02    0.316E-02
RMM:   7    -0.176394455155E+03    0.77746E-05   -0.53494E-05  2917   0.302E-02
  37 F= -.17639446E+03 E0= -.17637237E+03  d E =-.662640E-01
       N       E                     dE             d eps       ncg     rms          rms(c)
DAV:   1    -0.176389737761E+03    0.47252E-02   -0.25629E+00  3368   0.293E+00    0.124E-01
RMM:   2    -0.176392663019E+03   -0.29253E-02   -0.31480E-02  3247   0.784E-01    0.167E-01
RMM:   3    -0.176393835854E+03   -0.11728E-02   -0.16459E-02  4474   0.359E-01    0.829E-02
RMM:   4    -0.176393826938E+03    0.89166E-05   -0.76816E-04  3577   0.614E-02    0.747E-02
RMM:   5    -0.176393775108E+03    0.51829E-04   -0.12827E-04  3181   0.485E-02    0.630E-02
RMM:   6    -0.176393696090E+03    0.79018E-04   -0.24060E-04  3549   0.531E-02    0.263E-02
RMM:   7    -0.176393694469E+03    0.16211E-05   -0.82586E-05  3132   0.357E-02
  38 F= -.17639369E+03 E0= -.17637155E+03  d E =-.664268E-01
       N       E                     dE             d eps       ncg     rms          rms(c)
DAV:   1    -0.176389077554E+03    0.46185E-02   -0.25556E+00  3256   0.290E+00    0.101E-01
RMM:   2    -0.176391900320E+03   -0.28228E-02   -0.29817E-02  3253   0.745E-01    0.115E-01
RMM:   3    -0.176393343343E+03   -0.14430E-02   -0.16750E-02  4533   0.340E-01    0.808E-02
RMM:   4    -0.176393314241E+03    0.29102E-04   -0.52889E-04  3344   0.529E-02    0.711E-02
RMM:   5    -0.176393254928E+03    0.59313E-04   -0.11886E-04  3106   0.469E-02    0.584E-02
RMM:   6    -0.176393191328E+03    0.63599E-04   -0.27274E-04  3763   0.513E-02    0.296E-02
RMM:   7    -0.176393185387E+03    0.59418E-05   -0.61252E-05  2918   0.314E-02
  39 F= -.17639319E+03 E0= -.17637108E+03  d E =-.663234E-01
       N       E                     dE             d eps       ncg     rms          rms(c)
DAV:   1    -0.176389663179E+03    0.35281E-02   -0.25674E+00  3268   0.290E+00    0.947E-02
RMM:   2    -0.176392299978E+03   -0.26368E-02   -0.27826E-02  3248   0.732E-01    0.825E-02
RMM:   3    -0.176393660019E+03   -0.13600E-02   -0.14845E-02  4557   0.317E-01    0.867E-02
RMM:   4    -0.176393605914E+03    0.54105E-04   -0.49283E-04  4027   0.513E-02    0.702E-02
RMM:   5    -0.176393555232E+03    0.50682E-04   -0.53651E-05  2408   0.288E-02    0.565E-02
RMM:   6    -0.176393503300E+03    0.51932E-04   -0.30366E-04  4218   0.512E-02    0.337E-02
RMM:   7    -0.176393493204E+03    0.10095E-04   -0.55802E-05  2994   0.309E-02    0.198E-02
RMM:   8    -0.176393489085E+03    0.41192E-05   -0.13021E-05  1870   0.140E-02
  40 F= -.17639349E+03 E0= -.17637138E+03  d E =-.663132E-01
       N       E                     dE             d eps       ncg     rms          rms(c)
DAV:   1    -0.176389909475E+03    0.35837E-02   -0.25621E+00  3324   0.294E+00    0.130E-01
RMM:   2    -0.176392854968E+03   -0.29455E-02   -0.31946E-02  3255   0.785E-01    0.174E-01
RMM:   3    -0.176394003439E+03   -0.11485E-02   -0.16814E-02  4442   0.370E-01    0.823E-02
RMM:   4    -0.176394011192E+03   -0.77523E-05   -0.99319E-04  3548   0.674E-02    0.740E-02
RMM:   5    -0.176393952170E+03    0.59022E-04   -0.12839E-04  3201   0.484E-02    0.605E-02
RMM:   6    -0.176393880930E+03    0.71240E-04   -0.23255E-04  3490   0.525E-02    0.308E-02
RMM:   7    -0.176393877992E+03    0.29383E-05   -0.93834E-05  3156   0.374E-02
  41 F= -.17639388E+03 E0= -.17637180E+03  d E =-.662437E-01
       N       E                     dE             d eps       ncg     rms          rms(c)
DAV:   1    -0.176389150393E+03    0.47305E-02   -0.25558E+00  3264   0.290E+00    0.100E-01
RMM:   2    -0.176391969070E+03   -0.28187E-02   -0.29782E-02  3254   0.745E-01    0.117E-01
RMM:   3    -0.176393388721E+03   -0.14197E-02   -0.16576E-02  4527   0.338E-01    0.801E-02
RMM:   4    -0.176393361958E+03    0.26763E-04   -0.53358E-04  3321   0.529E-02    0.709E-02
RMM:   5    -0.176393307328E+03    0.54629E-04   -0.11921E-04  3112   0.473E-02    0.597E-02
RMM:   6    -0.176393237836E+03    0.69492E-04   -0.25768E-04  3701   0.495E-02    0.297E-02
RMM:   7    -0.176393232987E+03    0.48493E-05   -0.67761E-05  2969   0.331E-02
  42 F= -.17639323E+03 E0= -.17637115E+03  d E =-.662341E-01
       N       E                     dE             d eps       ncg     rms          rms(c)
DAV:   1    -0.176390060747E+03    0.31771E-02   -0.25662E+00  3272   0.290E+00    0.944E-02
RMM:   2    -0.176392718773E+03   -0.26580E-02   -0.28000E-02  3255   0.732E-01    0.818E-02
RMM:   3    -0.176394112129E+03   -0.13934E-02   -0.15165E-02  4555   0.320E-01    0.875E-02
RMM:   4    -0.176394060282E+03    0.51848E-04   -0.51188E-04  4065   0.525E-02    0.709E-02
RMM:   5    -0.176394015761E+03    0.44520E-04   -0.50609E-05  2307   0.276E-02    0.595E-02
RMM:   6    -0.176393955928E+03    0.59833E-04   -0.27890E-04  4142   0.498E-02    0.355E-02
RMM:   7    -0.176393946784E+03    0.91445E-05   -0.71483E-05  3116   0.343E-02
  43 F= -.17639395E+03 E0= -.17637187E+03  d E =-.662222E-01
       N       E                     dE             d eps       ncg     rms          rms(c)
DAV:   1    -0.176388628789E+03    0.53271E-02   -0.25614E+00  3380   0.293E+00    0.127E-01
RMM:   2    -0.176391537806E+03   -0.29090E-02   -0.31462E-02  3252   0.778E-01    0.165E-01
RMM:   3    -0.176392736996E+03   -0.11992E-02   -0.16773E-02  4464   0.364E-01    0.849E-02
RMM:   4    -0.176392729007E+03    0.79891E-05   -0.84802E-04  3534   0.635E-02    0.760E-02
RMM:   5    -0.176392669214E+03    0.59792E-04   -0.13176E-04  3202   0.491E-02    0.635E-02
RMM:   6    -0.176392591881E+03    0.77334E-04   -0.24504E-04  3533   0.532E-02    0.320E-02
RMM:   7    -0.176392587389E+03    0.44915E-05   -0.96046E-05  3170   0.380E-02
  44 F= -.17639259E+03 E0= -.17637046E+03  d E =-.663955E-01
       N       E                     dE             d eps       ncg     rms          rms(c)
DAV:   1    -0.176389235125E+03    0.33568E-02   -0.25552E+00  3252   0.288E+00    0.101E-01
RMM:   2    -0.176392052251E+03   -0.28171E-02   -0.29768E-02  3254   0.744E-01    0.118E-01
RMM:   3    -0.176393466244E+03   -0.14140E-02   -0.16574E-02  4529   0.337E-01    0.807E-02
RMM:   4    -0.176393439171E+03    0.27073E-04   -0.53836E-04  3296   0.524E-02    0.714E-02
RMM:   5    -0.176393368236E+03    0.70935E-04   -0.12477E-04  3145   0.484E-02    0.550E-02
RMM:   6    -0.176393313270E+03    0.54966E-04   -0.26924E-04  3705   0.506E-02    0.288E-02
RMM:   7    -0.176393307218E+03    0.60512E-05   -0.55906E-05  2792   0.300E-02
  45 F= -.17639331E+03 E0= -.17637118E+03  d E =-.663874E-01
       N       E                     dE             d eps       ncg     rms          rms(c)
DAV:   1    -0.176389341924E+03    0.39713E-02   -0.25654E+00  3268   0.289E+00    0.944E-02
RMM:   2    -0.176391983999E+03   -0.26421E-02   -0.27850E-02  3252   0.730E-01    0.854E-02
RMM:   3    -0.176393343353E+03   -0.13594E-02   -0.14896E-02  4554   0.316E-01    0.862E-02
RMM:   4    -0.176393289208E+03    0.54146E-04   -0.46795E-04  3830   0.505E-02    0.701E-02
RMM:   5    -0.176393237827E+03    0.51381E-04   -0.73941E-05  2817   0.343E-02    0.578E-02
RMM:   6    -0.176393185041E+03    0.52786E-04   -0.27804E-04  4017   0.505E-02    0.349E-02
RMM:   7    -0.176393173402E+03    0.11639E-04   -0.63607E-05  3033   0.327E-02    0.184E-02
RMM:   8    -0.176393169701E+03    0.37013E-05   -0.14970E-05  1875   0.143E-02
  46 F= -.17639317E+03 E0= -.17637111E+03  d E =-.661864E-01
       N       E                     dE             d eps       ncg     rms          rms(c)
DAV:   1    -0.176389122310E+03    0.40511E-02   -0.25603E+00  3308   0.292E+00    0.131E-01
RMM:   2    -0.176392081525E+03   -0.29592E-02   -0.32043E-02  3249   0.780E-01    0.176E-01
RMM:   3    -0.176393231848E+03   -0.11503E-02   -0.16956E-02  4414   0.370E-01    0.820E-02
RMM:   4    -0.176393243040E+03   -0.11192E-04   -0.10459E-03  3534   0.692E-02    0.740E-02
RMM:   5    -0.176393181710E+03    0.61330E-04   -0.12839E-04  3215   0.483E-02    0.599E-02
RMM:   6    -0.176393109779E+03    0.71931E-04   -0.24275E-04  3509   0.536E-02    0.295E-02
RMM:   7    -0.176393106868E+03    0.29107E-05   -0.87030E-05  3139   0.364E-02
  47 F= -.17639311E+03 E0= -.17637100E+03  d E =-.663144E-01
       N       E                     dE             d eps       ncg     rms          rms(c)
DAV:   1    -0.176388965757E+03    0.41440E-02   -0.25549E+00  3272   0.285E+00    0.101E-01
RMM:   2    -0.176391786951E+03   -0.28212E-02   -0.29772E-02  3252   0.735E-01    0.118E-01
RMM:   3    -0.176393210007E+03   -0.14231E-02   -0.16651E-02  4541   0.333E-01    0.801E-02
RMM:   4    -0.176393182002E+03    0.28005E-04   -0.52074E-04  3268   0.512E-02    0.712E-02
RMM:   5    -0.176393114333E+03    0.67669E-04   -0.12426E-04  3121   0.478E-02    0.566E-02
RMM:   6    -0.176393058670E+03    0.55663E-04   -0.27764E-04  3716   0.523E-02    0.302E-02
RMM:   7    -0.176393052035E+03    0.66347E-05   -0.56748E-05  2838   0.305E-02
  48 F= -.17639305E+03 E0= -.17637103E+03  d E =-.660810E-01
       N       E                     dE             d eps       ncg     rms          rms(c)
DAV:   1    -0.176390069211E+03    0.29895E-02   -0.25662E+00  3300   0.283E+00    0.939E-02
RMM:   2    -0.176392708685E+03   -0.26395E-02   -0.27831E-02  3251   0.715E-01    0.858E-02
RMM:   3    -0.176394061563E+03   -0.13529E-02   -0.14854E-02  4516   0.310E-01    0.854E-02
RMM:   4    -0.176394009915E+03    0.51648E-04   -0.46816E-04  3613   0.508E-02    0.697E-02
RMM:   5    -0.176393956193E+03    0.53722E-04   -0.84262E-05  2890   0.366E-02    0.570E-02
RMM:   6    -0.176393905802E+03    0.50391E-04   -0.27263E-04  3898   0.505E-02    0.353E-02
RMM:   7    -0.176393893501E+03    0.12301E-04   -0.66363E-05  3049   0.338E-02    0.176E-02
RMM:   8    -0.176393890152E+03    0.33485E-05   -0.15457E-05  1866   0.137E-02
  49 F= -.17639389E+03 E0= -.17637182E+03  d E =-.662200E-01
       N       E                     dE             d eps       ncg     rms          rms(c)
DAV:   1    -0.176388879274E+03    0.50142E-02   -0.25610E+00  3344   0.293E+00    0.127E-01
RMM:   2    -0.176391821120E+03   -0.29418E-02   -0.31795E-02  3246   0.782E-01    0.170E-01
RMM:   3    -0.176392989983E+03   -0.11689E-02   -0.16730E-02  4429   0.366E-01    0.823E-02
RMM:   4    -0.176392997324E+03   -0.73408E-05   -0.96794E-04  3564   0.678E-02    0.743E-02
RMM:   5    -0.176392935974E+03    0.61349E-04   -0.13617E-04  3198   0.497E-02    0.612E-02
RMM:   6    -0.176392862293E+03    0.73681E-04   -0.24593E-04  3511   0.545E-02    0.292E-02
RMM:   7    -0.176392859502E+03    0.27916E-05   -0.87640E-05  3154   0.367E-02
  50 F= -.17639286E+03 E0= -.17637076E+03  d E =-.662992E-01
       N       E                     dE             d eps       ncg     rms          rms(c)
DAV:   1    -0.176389166702E+03    0.36956E-02   -0.25557E+00  3264   0.289E+00    0.101E-01
RMM:   2    -0.176391980997E+03   -0.28143E-02   -0.29781E-02  3257   0.742E-01    0.116E-01
RMM:   3    -0.176393409708E+03   -0.14287E-02   -0.16615E-02  4526   0.337E-01    0.814E-02
RMM:   4    -0.176393380566E+03    0.29143E-04   -0.54212E-04  3368   0.533E-02    0.712E-02
RMM:   5    -0.176393327164E+03    0.53402E-04   -0.11072E-04  3007   0.446E-02    0.601E-02
RMM:   6    -0.176393256727E+03    0.70437E-04   -0.27726E-04  3813   0.514E-02    0.290E-02
RMM:   7    -0.176393251064E+03    0.56629E-05   -0.61595E-05  2995   0.323E-02
  51 F= -.17639325E+03 E0= -.17637112E+03  d E =-.663922E-01
       N       E                     dE             d eps       ncg     rms          rms(c)
DAV:   1    -0.176387296939E+03    0.59598E-02   -0.25662E+00  3284   0.290E+00    0.124E-01
RMM:   2    -0.176390110115E+03   -0.28132E-02   -0.30249E-02  3250   0.758E-01    0.161E-01
RMM:   3    -0.176391185937E+03   -0.10758E-02   -0.15314E-02  4405   0.347E-01    0.817E-02
RMM:   4    -0.176391193555E+03   -0.76176E-05   -0.91635E-04  3548   0.653E-02    0.728E-02
RMM:   5    -0.176391149495E+03    0.44060E-04   -0.12729E-04  3180   0.475E-02    0.655E-02
RMM:   6    -0.176391066011E+03    0.83484E-04   -0.24718E-04  3585   0.525E-02    0.272E-02
RMM:   7    -0.176391063353E+03    0.26583E-05   -0.69389E-05  2995   0.326E-02
  52 F= -.17639106E+03 E0= -.17636889E+03  d E =-.665335E-01
       N       E                     dE             d eps       ncg     rms          rms(c)
DAV:   1    -0.176389242736E+03    0.18233E-02   -0.25570E+00  3328   0.292E+00    0.105E-01
RMM:   2    -0.176392034695E+03   -0.27920E-02   -0.29701E-02  3247   0.753E-01    0.119E-01
RMM:   3    -0.176393444266E+03   -0.14096E-02   -0.16540E-02  4542   0.344E-01    0.857E-02
RMM:   4    -0.176393404878E+03    0.39389E-04   -0.55915E-04  3614   0.554E-02    0.743E-02
RMM:   5    -0.176393355487E+03    0.49390E-04   -0.10486E-04  3033   0.429E-02    0.636E-02
RMM:   6    -0.176393279137E+03    0.76350E-04   -0.26017E-04  3766   0.517E-02    0.376E-02
RMM:   7    -0.176393266921E+03    0.12216E-04   -0.99484E-05  3195   0.412E-02    0.174E-02
RMM:   8    -0.176393265330E+03    0.15908E-05   -0.27358E-05  2053   0.167E-02
  53 F= -.17639327E+03 E0= -.17637117E+03  d E =-.662874E-01
       N       E                     dE             d eps       ncg     rms          rms(c)
DAV:   1    -0.176388315726E+03    0.49512E-02   -0.25570E+00  3256   0.286E+00    0.995E-02
RMM:   2    -0.176391132705E+03   -0.28170E-02   -0.29682E-02  3259   0.736E-01    0.115E-01
RMM:   3    -0.176392565596E+03   -0.14329E-02   -0.16585E-02  4541   0.333E-01    0.800E-02
RMM:   4    -0.176392534410E+03    0.31186E-04   -0.50384E-04  3296   0.510E-02    0.703E-02
RMM:   5    -0.176392474369E+03    0.60041E-04   -0.12298E-04  3139   0.476E-02    0.578E-02
RMM:   6    -0.176392412104E+03    0.62265E-04   -0.27454E-04  3732   0.520E-02    0.271E-02
RMM:   7    -0.176392406680E+03    0.54246E-05   -0.53206E-05  2726   0.295E-02
  54 F= -.17639241E+03 E0= -.17637035E+03  d E =-.661849E-01
       N       E                     dE             d eps       ncg     rms          rms(c)
DAV:   1    -0.176387546724E+03    0.48654E-02   -0.25676E+00  3296   0.286E+00    0.125E-01
RMM:   2    -0.176390358582E+03   -0.28119E-02   -0.30283E-02  3246   0.747E-01    0.162E-01
RMM:   3    -0.176391433467E+03   -0.10749E-02   -0.15342E-02  4350   0.342E-01    0.829E-02
RMM:   4    -0.176391439212E+03   -0.57449E-05   -0.92586E-04  3642   0.667E-02    0.733E-02
RMM:   5    -0.176391392181E+03    0.47030E-04   -0.12980E-04  3166   0.473E-02    0.659E-02
RMM:   6    -0.176391307971E+03    0.84211E-04   -0.26193E-04  3614   0.529E-02    0.263E-02
RMM:   7    -0.176391304854E+03    0.31169E-05   -0.61799E-05  2850   0.306E-02
  55 F= -.17639130E+03 E0= -.17636917E+03  d E =-.664072E-01
       N       E                     dE             d eps       ncg     rms          rms(c)
DAV:   1    -0.176388986755E+03    0.23212E-02   -0.25581E+00  3380   0.293E+00    0.105E-01
RMM:   2    -0.176391784798E+03   -0.27980E-02   -0.29715E-02  3253   0.754E-01    0.121E-01
RMM:   3    -0.176393190751E+03   -0.14060E-02   -0.16586E-02  4547   0.345E-01    0.853E-02
RMM:   4    -0.176393149152E+03    0.41599E-04   -0.53225E-04  3578   0.541E-02    0.743E-02
RMM:   5    -0.176393099968E+03    0.49184E-04   -0.10704E-04  3028   0.434E-02    0.638E-02
RMM:   6    -0.176393021142E+03    0.78826E-04   -0.26198E-04  3779   0.518E-02    0.360E-02
RMM:   7    -0.176393010201E+03    0.10941E-04   -0.94452E-05  3189   0.401E-02    0.173E-02
RMM:   8    -0.176393008615E+03    0.15859E-05   -0.26200E-05  2024   0.166E-02
  56 F= -.17639301E+03 E0= -.17637089E+03  d E =-.663518E-01
       N       E                     dE             d eps       ncg     rms          rms(c)
DAV:   1    -0.176388958445E+03    0.40518E-02   -0.25575E+00  3256   0.290E+00    0.993E-02
RMM:   2    -0.176391787056E+03   -0.28286E-02   -0.29747E-02  3262   0.745E-01    0.114E-01
RMM:   3    -0.176393224062E+03   -0.14370E-02   -0.16621E-02  4532   0.337E-01    0.791E-02
RMM:   4    -0.176393196132E+03    0.27931E-04   -0.51120E-04  3323   0.517E-02    0.698E-02
RMM:   5    -0.176393138803E+03    0.57329E-04   -0.11676E-04  3139   0.470E-02    0.569E-02
RMM:   6    -0.176393075918E+03    0.62884E-04   -0.25830E-04  3714   0.502E-02    0.277E-02
RMM:   7    -0.176393071278E+03    0.46407E-05   -0.59204E-05  2875   0.313E-02
  57 F= -.17639307E+03 E0= -.17637096E+03  d E =-.663471E-01
       N       E                     dE             d eps       ncg     rms          rms(c)
DAV:   1    -0.176386367869E+03    0.67080E-02   -0.25679E+00  3264   0.291E+00    0.122E-01
RMM:   2    -0.176389160390E+03   -0.27925E-02   -0.30095E-02  3250   0.757E-01    0.152E-01
RMM:   3    -0.176390294370E+03   -0.11340E-02   -0.15475E-02  4441   0.346E-01    0.821E-02
RMM:   4    -0.176390286345E+03    0.80247E-05   -0.75001E-04  3448   0.604E-02    0.726E-02
RMM:   5    -0.176390236439E+03    0.49906E-04   -0.13882E-04  3221   0.506E-02    0.642E-02
RMM:   6    -0.176390157216E+03    0.79223E-04   -0.23784E-04  3514   0.526E-02    0.253E-02
RMM:   7    -0.176390155586E+03    0.16300E-05   -0.67531E-05  2964   0.315E-02
  58 F= -.17639016E+03 E0= -.17636802E+03  d E =-.664174E-01
       N       E                     dE             d eps       ncg     rms          rms(c)
DAV:   1    -0.176389144069E+03    0.10131E-02   -0.25584E+00  3332   0.294E+00    0.106E-01
RMM:   2    -0.176391947186E+03   -0.28031E-02   -0.29852E-02  3253   0.758E-01    0.121E-01
RMM:   3    -0.176393354345E+03   -0.14072E-02   -0.16624E-02  4549   0.347E-01    0.854E-02
RMM:   4    -0.176393313551E+03    0.40794E-04   -0.53383E-04  3646   0.544E-02    0.743E-02
RMM:   5    -0.176393263396E+03    0.50156E-04   -0.10382E-04  3031   0.426E-02    0.634E-02
RMM:   6    -0.176393186243E+03    0.77153E-04   -0.26710E-04  3793   0.520E-02    0.361E-02
RMM:   7    -0.176393175139E+03    0.11104E-04   -0.95358E-05  3185   0.403E-02    0.173E-02
RMM:   8    -0.176393173472E+03    0.16665E-05   -0.25611E-05  2001   0.163E-02
  59 F= -.17639317E+03 E0= -.17637110E+03  d E =-.662086E-01
       N       E                     dE             d eps       ncg     rms          rms(c)
DAV:   1    -0.176389619632E+03    0.35555E-02   -0.25571E+00  3244   0.289E+00    0.984E-02
RMM:   2    -0.176392429188E+03   -0.28096E-02   -0.29554E-02  3260   0.742E-01    0.110E-01
RMM:   3    -0.176393861940E+03   -0.14328E-02   -0.16432E-02  4536   0.334E-01    0.791E-02
RMM:   4    -0.176393833930E+03    0.28010E-04   -0.51696E-04  3328   0.517E-02    0.694E-02
RMM:   5    -0.176393772536E+03    0.61395E-04   -0.11926E-04  3168   0.472E-02    0.553E-02
RMM:   6    -0.176393715391E+03    0.57145E-04   -0.26165E-04  3715   0.507E-02    0.271E-02
RMM:   7    -0.176393710596E+03    0.47949E-05   -0.55241E-05  2762   0.300E-02
  60 F= -.17639371E+03 E0= -.17637163E+03  d E =-.662416E-01
       N       E                     dE             d eps       ncg     rms          rms(c)
DAV:   1    -0.176386657381E+03    0.70580E-02   -0.25673E+00  3256   0.291E+00    0.124E-01
RMM:   2    -0.176389454443E+03   -0.27971E-02   -0.30173E-02  3251   0.756E-01    0.156E-01
RMM:   3    -0.176390563493E+03   -0.11091E-02   -0.15397E-02  4423   0.346E-01    0.819E-02
RMM:   4    -0.176390565133E+03   -0.16399E-05   -0.84235E-04  3488   0.631E-02    0.727E-02
RMM:   5    -0.176390514339E+03    0.50795E-04   -0.14163E-04  3226   0.507E-02    0.641E-02
RMM:   6    -0.176390437002E+03    0.77337E-04   -0.24382E-04  3517   0.539E-02    0.255E-02
RMM:   7    -0.176390434808E+03    0.21939E-05   -0.68046E-05  2954   0.315E-02
  61 F= -.17639043E+03 E0= -.17636833E+03  d E =-.663176E-01
       N       E                     dE             d eps       ncg     rms          rms(c)
DAV:   1    -0.176389058373E+03    0.13786E-02   -0.25585E+00  3328   0.294E+00    0.106E-01
RMM:   2    -0.176391827419E+03   -0.27690E-02   -0.29502E-02  3254   0.759E-01    0.118E-01
RMM:   3    -0.176393224323E+03   -0.13969E-02   -0.16366E-02  4558   0.343E-01    0.853E-02
RMM:   4    -0.176393177429E+03    0.46894E-04   -0.50847E-04  3645   0.532E-02    0.737E-02
RMM:   5    -0.176393119774E+03    0.57655E-04   -0.10807E-04  3101   0.435E-02    0.605E-02
RMM:   6    -0.176393047416E+03    0.72358E-04   -0.28260E-04  3843   0.521E-02    0.315E-02
RMM:   7    -0.176393039486E+03    0.79306E-05   -0.79839E-05  3155   0.366E-02
  62 F= -.17639304E+03 E0= -.17637090E+03  d E =-.664057E-01
       N       E                     dE             d eps       ncg     rms          rms(c)
DAV:   1    -0.176389171114E+03    0.38763E-02   -0.25562E+00  3256   0.290E+00    0.999E-02
RMM:   2    -0.176392003786E+03   -0.28327E-02   -0.29817E-02  3259   0.744E-01    0.117E-01
RMM:   3    -0.176393441734E+03   -0.14379E-02   -0.16747E-02  4535   0.339E-01    0.796E-02
RMM:   4    -0.176393415075E+03    0.26659E-04   -0.52944E-04  3315   0.521E-02    0.705E-02
RMM:   5    -0.176393352583E+03    0.62492E-04   -0.11706E-04  3142   0.469E-02    0.557E-02
RMM:   6    -0.176393293061E+03    0.59522E-04   -0.26685E-04  3746   0.509E-02    0.279E-02
RMM:   7    -0.176393287757E+03    0.53037E-05   -0.55675E-05  2800   0.302E-02
  63 F= -.17639329E+03 E0= -.17637119E+03  d E =-.663054E-01
       N       E                     dE             d eps       ncg     rms          rms(c)
DAV:   1    -0.176387484644E+03    0.58084E-02   -0.25680E+00  3256   0.291E+00    0.125E-01
RMM:   2    -0.176390291289E+03   -0.28066E-02   -0.30290E-02  3247   0.761E-01    0.157E-01
RMM:   3    -0.176391380952E+03   -0.10897E-02   -0.15331E-02  4421   0.348E-01    0.822E-02
RMM:   4    -0.176391386307E+03   -0.53553E-05   -0.89640E-04  3457   0.639E-02    0.730E-02
RMM:   5    -0.176391333584E+03    0.52723E-04   -0.13913E-04  3225   0.508E-02    0.632E-02
RMM:   6    -0.176391256077E+03    0.77507E-04   -0.24102E-04  3510   0.534E-02    0.260E-02
RMM:   7    -0.176391253583E+03    0.24941E-05   -0.69112E-05  2995   0.320E-02
  64 F= -.17639125E+03 E0= -.17636916E+03  d E =-.662743E-01
       N       E                     dE             d eps       ncg     rms          rms(c)
DAV:   1    -0.176389360703E+03    0.18954E-02   -0.25591E+00  3340   0.294E+00    0.105E-01
RMM:   2    -0.176392146281E+03   -0.27856E-02   -0.29617E-02  3255   0.758E-01    0.118E-01
RMM:   3    -0.176393546031E+03   -0.13997E-02   -0.16443E-02  4548   0.345E-01    0.857E-02
RMM:   4    -0.176393502090E+03    0.43941E-04   -0.51099E-04  3428   0.536E-02    0.743E-02
RMM:   5    -0.176393446165E+03    0.55925E-04   -0.11363E-04  3100   0.455E-02    0.620E-02
RMM:   6    -0.176393376724E+03    0.69440E-04   -0.26894E-04  3774   0.523E-02    0.378E-02
RMM:   7    -0.176393363686E+03    0.13038E-04   -0.94310E-05  3192   0.400E-02    0.166E-02
RMM:   8    -0.176393361956E+03    0.17302E-05   -0.24778E-05  1973   0.160E-02
  65 F= -.17639336E+03 E0= -.17637128E+03  d E =-.662484E-01
       N       E                     dE             d eps       ncg     rms          rms(c)
DAV:   1    -0.176389413151E+03    0.39505E-02   -0.25566E+00  3260   0.290E+00    0.998E-02
RMM:   2    -0.176392240782E+03   -0.28276E-02   -0.29744E-02  3253   0.746E-01    0.117E-01
RMM:   3    -0.176393658297E+03   -0.14175E-02   -0.16552E-02  4530   0.337E-01    0.791E-02
RMM:   4    -0.176393632157E+03    0.26140E-04   -0.52758E-04  3331   0.524E-02    0.699E-02
RMM:   5    -0.176393572764E+03    0.59393E-04   -0.12028E-04  3141   0.474E-02    0.572E-02
RMM:   6    -0.176393510728E+03    0.62036E-04   -0.26474E-04  3710   0.519E-02    0.279E-02
RMM:   7    -0.176393506042E+03    0.46856E-05   -0.59493E-05  2883   0.314E-02
  66 F= -.17639351E+03 E0= -.17637143E+03  d E =-.662399E-01
       N       E                     dE             d eps       ncg     rms          rms(c)
DAV:   1    -0.176387331673E+03    0.61791E-02   -0.25661E+00  3268   0.291E+00    0.124E-01
RMM:   2    -0.176390140897E+03   -0.28092E-02   -0.30226E-02  3251   0.759E-01    0.159E-01
RMM:   3    -0.176391240278E+03   -0.10994E-02   -0.15453E-02  4419   0.348E-01    0.820E-02
RMM:   4    -0.176391244364E+03   -0.40855E-05   -0.86879E-04  3526   0.640E-02    0.732E-02
RMM:   5    -0.176391200472E+03    0.43891E-04   -0.12567E-04  3182   0.473E-02    0.662E-02
RMM:   6    -0.176391117016E+03    0.83457E-04   -0.24065E-04  3572   0.520E-02    0.297E-02
RMM:   7    -0.176391113858E+03    0.31578E-05   -0.78621E-05  3128   0.350E-02
  67 F= -.17639111E+03 E0= -.17636900E+03  d E =-.663375E-01
       N       E                     dE             d eps       ncg     rms          rms(c)
DAV:   1    -0.176389484436E+03    0.16326E-02   -0.25580E+00  3368   0.294E+00    0.105E-01
RMM:   2    -0.176392273928E+03   -0.27895E-02   -0.29657E-02  3250   0.756E-01    0.116E-01
RMM:   3    -0.176393696714E+03   -0.14228E-02   -0.16600E-02  4552   0.347E-01    0.854E-02
RMM:   4    -0.176393654386E+03    0.42328E-04   -0.51818E-04  3439   0.542E-02    0.740E-02
RMM:   5    -0.176393607389E+03    0.46998E-04   -0.10756E-04  3060   0.440E-02    0.639E-02
RMM:   6    -0.176393530596E+03    0.76793E-04   -0.24594E-04  3704   0.509E-02    0.380E-02
RMM:   7    -0.176393517757E+03    0.12839E-04   -0.10582E-04  3201   0.423E-02    0.167E-02
RMM:   8    -0.176393516746E+03    0.10109E-05   -0.30736E-05  2121   0.177E-02
  68 F= -.17639352E+03 E0= -.17637143E+03  d E =-.662476E-01
       N       E                     dE             d eps       ncg     rms          rms(c)
DAV:   1    -0.176388954745E+03    0.45630E-02   -0.25576E+00  3260   0.290E+00    0.100E-01
RMM:   2    -0.176391792791E+03   -0.28380E-02   -0.29872E-02  3258   0.747E-01    0.116E-01
RMM:   3    -0.176393222520E+03   -0.14297E-02   -0.16675E-02  4538   0.339E-01    0.788E-02
RMM:   4    -0.176393196038E+03    0.26482E-04   -0.51862E-04  3303   0.518E-02    0.697E-02
RMM:   5    -0.176393138646E+03    0.57392E-04   -0.11574E-04  3130   0.468E-02    0.566E-02
RMM:   6    -0.176393075891E+03    0.62755E-04   -0.25892E-04  3743   0.499E-02    0.280E-02
RMM:   7    -0.176393070796E+03    0.50956E-05   -0.59284E-05  2886   0.316E-02
  69 F= -.17639307E+03 E0= -.17637096E+03  d E =-.663450E-01
       N       E                     dE             d eps       ncg     rms          rms(c)
DAV:   1    -0.176386362362E+03    0.67135E-02   -0.25679E+00  3264   0.291E+00    0.122E-01
RMM:   2    -0.176389157061E+03   -0.27947E-02   -0.30105E-02  3252   0.757E-01    0.153E-01
RMM:   3    -0.176390294285E+03   -0.11372E-02   -0.15511E-02  4441   0.346E-01    0.820E-02
RMM:   4    -0.176390285702E+03    0.85823E-05   -0.74294E-04  3452   0.602E-02    0.726E-02
RMM:   5    -0.176390235538E+03    0.50164E-04   -0.13801E-04  3220   0.504E-02    0.640E-02
RMM:   6    -0.176390156601E+03    0.78938E-04   -0.23755E-04  3519   0.525E-02    0.252E-02
RMM:   7    -0.176390155009E+03    0.15915E-05   -0.67381E-05  2960   0.314E-02
  70 F= -.17639016E+03 E0= -.17636802E+03  d E =-.664188E-01
       N       E                     dE             d eps       ncg     rms          rms(c)
DAV:   1    -0.176389217200E+03    0.93940E-03   -0.25579E+00  3336   0.293E+00    0.105E-01
RMM:   2    -0.176392012950E+03   -0.27957E-02   -0.29727E-02  3252   0.754E-01    0.117E-01
RMM:   3    -0.176393429360E+03   -0.14164E-02   -0.16565E-02  4541   0.345E-01    0.852E-02
RMM:   4    -0.176393388316E+03    0.41044E-04   -0.52675E-04  3477   0.542E-02    0.739E-02
RMM:   5    -0.176393332437E+03    0.55879E-04   -0.10475E-04  2989   0.430E-02    0.607E-02
RMM:   6    -0.176393264121E+03    0.68316E-04   -0.27316E-04  3839   0.507E-02    0.361E-02
RMM:   7    -0.176393252248E+03    0.11873E-04   -0.84726E-05  3166   0.379E-02    0.172E-02
RMM:   8    -0.176393249787E+03    0.24609E-05   -0.21051E-05  1895   0.152E-02
  71 F= -.17639325E+03 E0= -.17637115E+03  d E =-.663111E-01
       N       E                     dE             d eps       ncg     rms          rms(c)
DAV:   1    -0.176388916931E+03    0.43353E-02   -0.25562E+00  3264   0.286E+00    0.986E-02
RMM:   2    -0.176391733823E+03   -0.28169E-02   -0.29665E-02  3257   0.733E-01    0.110E-01
RMM:   3    -0.176393188004E+03   -0.14542E-02   -0.16648E-02  4530   0.332E-01    0.790E-02
RMM:   4    -0.176393159213E+03    0.28791E-04   -0.50985E-04  3276   0.511E-02    0.693E-02
RMM:   5    -0.176393095777E+03    0.63435E-04   -0.11063E-04  3088   0.452E-02    0.536E-02
RMM:   6    -0.176393044279E+03    0.51499E-04   -0.25793E-04  3748   0.489E-02    0.305E-02
RMM:   7    -0.176393037243E+03    0.70356E-05   -0.54046E-05  2760   0.295E-02
  72 F= -.17639304E+03 E0= -.17637086E+03  d E =-.665300E-01
       N       E                     dE             d eps       ncg     rms          rms(c)
DAV:   1    -0.176386416678E+03    0.66276E-02   -0.25678E+00  3252   0.285E+00    0.123E-01
RMM:   2    -0.176389200559E+03   -0.27839E-02   -0.30019E-02  3253   0.740E-01    0.153E-01
RMM:   3    -0.176390314170E+03   -0.11136E-02   -0.15324E-02  4378   0.337E-01    0.823E-02
RMM:   4    -0.176390311014E+03    0.31555E-05   -0.78734E-04  3429   0.614E-02    0.726E-02
RMM:   5    -0.176390248554E+03    0.62461E-04   -0.15259E-04  3224   0.529E-02    0.603E-02
RMM:   6    -0.176390184131E+03    0.64423E-04   -0.24092E-04  3466   0.544E-02    0.257E-02
RMM:   7    -0.176390181160E+03    0.29706E-05   -0.62811E-05  2859   0.301E-02
  73 F= -.17639018E+03 E0= -.17636808E+03  d E =-.663018E-01
       N       E                     dE             d eps       ncg     rms          rms(c)
DAV:   1    -0.176389483602E+03    0.70053E-03   -0.25580E+00  3372   0.293E+00    0.106E-01
RMM:   2    -0.176392273588E+03   -0.27900E-02   -0.29659E-02  3261   0.755E-01    0.122E-01
RMM:   3    -0.176393667565E+03   -0.13940E-02   -0.16457E-02  4553   0.342E-01    0.853E-02
RMM:   4    -0.176393622243E+03    0.45322E-04   -0.50867E-04  3572   0.529E-02    0.741E-02
RMM:   5    -0.176393558713E+03    0.63530E-04   -0.10951E-04  3060   0.437E-02    0.589E-02
RMM:   6    -0.176393490007E+03    0.68706E-04   -0.29446E-04  3893   0.518E-02    0.290E-02
RMM:   7    -0.176393482853E+03    0.71538E-05   -0.65619E-05  3038   0.330E-02
  74 F= -.17639348E+03 E0= -.17637143E+03  d E =-.661641E-01
       N       E                     dE             d eps       ncg     rms          rms(c)
DAV:   1    -0.176389171692E+03    0.43183E-02   -0.25562E+00  3264   0.290E+00    0.997E-02
RMM:   2    -0.176391996389E+03   -0.28247E-02   -0.29764E-02  3262   0.743E-01    0.114E-01
RMM:   3    -0.176393434642E+03   -0.14383E-02   -0.16647E-02  4535   0.338E-01    0.795E-02
RMM:   4    -0.176393406135E+03    0.28507E-04   -0.51947E-04  3308   0.519E-02    0.700E-02
RMM:   5    -0.176393347314E+03    0.58821E-04   -0.11517E-04  3144   0.466E-02    0.562E-02
RMM:   6    -0.176393285156E+03    0.62158E-04   -0.26546E-04  3770   0.499E-02    0.277E-02
RMM:   7    -0.176393279825E+03    0.53309E-05   -0.57443E-05  2861   0.311E-02
  75 F= -.17639328E+03 E0= -.17637118E+03  d E =-.662851E-01
       N       E                     dE             d eps       ncg     rms          rms(c)
DAV:   1    -0.176387478397E+03    0.58068E-02   -0.25681E+00  3256   0.291E+00    0.125E-01
RMM:   2    -0.176390288372E+03   -0.28100E-02   -0.30322E-02  3247   0.761E-01    0.157E-01
RMM:   3    -0.176391380870E+03   -0.10925E-02   -0.15358E-02  4423   0.348E-01    0.821E-02
RMM:   4    -0.176391385647E+03   -0.47769E-05   -0.88949E-04  3463   0.639E-02    0.729E-02
RMM:   5    -0.176391333958E+03    0.51689E-04   -0.13579E-04  3222   0.501E-02    0.631E-02
RMM:   6    -0.176391255968E+03    0.77990E-04   -0.23808E-04  3514   0.530E-02    0.263E-02
RMM:   7    -0.176391253498E+03    0.24705E-05   -0.71368E-05  3028   0.328E-02
  76 F= -.17639125E+03 E0= -.17636916E+03  d E =-.662684E-01
       N       E                     dE             d eps       ncg     rms          rms(c)
DAV:   1    -0.176389216106E+03    0.20399E-02   -0.25583E+00  3336   0.293E+00    0.106E-01
RMM:   2    -0.176392016055E+03   -0.27999E-02   -0.29777E-02  3252   0.758E-01    0.121E-01
RMM:   3    -0.176393411725E+03   -0.13957E-02   -0.16520E-02  4544   0.346E-01    0.855E-02
RMM:   4    -0.176393370337E+03    0.41388E-04   -0.53342E-04  3404   0.541E-02    0.743E-02
RMM:   5    -0.176393314153E+03    0.56185E-04   -0.11145E-04  3074   0.450E-02    0.616E-02
RMM:   6    -0.176393244159E+03    0.69994E-04   -0.26254E-04  3753   0.513E-02    0.373E-02
RMM:   7    -0.176393231656E+03    0.12503E-04   -0.93305E-05  3174   0.397E-02    0.167E-02
RMM:   8    -0.176393230047E+03    0.16090E-05   -0.25520E-05  1992   0.162E-02
  77 F= -.17639323E+03 E0= -.17637113E+03  d E =-.663051E-01
       N       E                     dE             d eps       ncg     rms          rms(c)
DAV:   1    -0.176389500563E+03    0.37311E-02   -0.25565E+00  3260   0.287E+00    0.984E-02
RMM:   2    -0.176392314711E+03   -0.28141E-02   -0.29600E-02  3257   0.737E-01    0.111E-01
RMM:   3    -0.176393745688E+03   -0.14310E-02   -0.16462E-02  4544   0.331E-01    0.792E-02
RMM:   4    -0.176393716218E+03    0.29469E-04   -0.50123E-04  3285   0.506E-02    0.696E-02
RMM:   5    -0.176393653077E+03    0.63141E-04   -0.11754E-04  3140   0.468E-02    0.550E-02
RMM:   6    -0.176393597585E+03    0.55492E-04   -0.26775E-04  3745   0.509E-02    0.288E-02
RMM:   7    -0.176393591748E+03    0.58368E-05   -0.55467E-05  2809   0.305E-02
  78 F= -.17639359E+03 E0= -.17637139E+03  d E =-.665916E-01
       N       E                     dE             d eps       ncg     rms          rms(c)
DAV:   1    -0.176386713486E+03    0.68841E-02   -0.25661E+00  3264   0.286E+00    0.125E-01
RMM:   2    -0.176389543882E+03   -0.28304E-02   -0.30429E-02  3253   0.748E-01    0.162E-01
RMM:   3    -0.176390624261E+03   -0.10804E-02   -0.15522E-02  4355   0.345E-01    0.818E-02
RMM:   4    -0.176390638674E+03   -0.14414E-04   -0.96117E-04  3526   0.668E-02    0.733E-02
RMM:   5    -0.176390592096E+03    0.46578E-04   -0.12688E-04  3192   0.473E-02    0.656E-02
RMM:   6    -0.176390510768E+03    0.81328E-04   -0.25263E-04  3586   0.527E-02    0.306E-02
RMM:   7    -0.176390506699E+03    0.40693E-05   -0.75396E-05  3075   0.347E-02
  79 F= -.17639051E+03 E0= -.17636839E+03  d E =-.663598E-01
       N       E                     dE             d eps       ncg     rms          rms(c)
DAV:   1    -0.176389804197E+03    0.70657E-03   -0.25578E+00  3348   0.292E+00    0.105E-01
RMM:   2    -0.176392593952E+03   -0.27898E-02   -0.29725E-02  3252   0.754E-01    0.119E-01
RMM:   3    -0.176394006642E+03   -0.14127E-02   -0.16570E-02  4543   0.345E-01    0.864E-02
RMM:   4    -0.176393962745E+03    0.43897E-04   -0.52808E-04  3590   0.545E-02    0.747E-02
RMM:   5    -0.176393917306E+03    0.45438E-04   -0.10405E-04  3015   0.426E-02    0.656E-02
RMM:   6    -0.176393836213E+03    0.81093E-04   -0.25343E-04  3720   0.514E-02    0.384E-02
RMM:   7    -0.176393822455E+03    0.13758E-04   -0.10704E-04  3195   0.428E-02    0.165E-02
RMM:   8    -0.176393821534E+03    0.92090E-06   -0.30487E-05  2137   0.173E-02
  80 F= -.17639382E+03 E0= -.17637171E+03  d E =-.663424E-01
       N       E                     dE             d eps       ncg     rms          rms(c)
DAV:   1    -0.176388586441E+03    0.52360E-02   -0.25565E+00  3272   0.290E+00    0.990E-02
RMM:   2    -0.176391420615E+03   -0.28342E-02   -0.29795E-02  3254   0.744E-01    0.117E-01
RMM:   3    -0.176392860032E+03   -0.14394E-02   -0.16718E-02  4529   0.338E-01    0.798E-02
RMM:   4    -0.176392833803E+03    0.26230E-04   -0.53219E-04  3322   0.526E-02    0.708E-02
RMM:   5    -0.176392779554E+03    0.54249E-04   -0.11878E-04  3137   0.474E-02    0.597E-02
RMM:   6    -0.176392709936E+03    0.69617E-04   -0.26688E-04  3729   0.508E-02    0.289E-02
RMM:   7    -0.176392705650E+03    0.42870E-05   -0.62672E-05  2958   0.322E-02
  81 F= -.17639271E+03 E0= -.17637061E+03  d E =-.662873E-01
       N       E                     dE             d eps       ncg     rms          rms(c)
DAV:   1    -0.176387526394E+03    0.51835E-02   -0.25659E+00  3276   0.291E+00    0.126E-01
RMM:   2    -0.176390359716E+03   -0.28333E-02   -0.30511E-02  3248   0.763E-01    0.164E-01
RMM:   3    -0.176391419839E+03   -0.10601E-02   -0.15380E-02  4394   0.351E-01    0.818E-02
RMM:   4    -0.176391432807E+03   -0.12968E-04   -0.96629E-04  3547   0.668E-02    0.733E-02
RMM:   5    -0.176391385229E+03    0.47578E-04   -0.12817E-04  3200   0.477E-02    0.652E-02
RMM:   6    -0.176391303418E+03    0.81811E-04   -0.25200E-04  3570   0.534E-02    0.291E-02
RMM:   7    -0.176391300388E+03    0.30301E-05   -0.75215E-05  3097   0.342E-02
  82 F= -.17639130E+03 E0= -.17636922E+03  d E =-.662487E-01
       N       E                     dE             d eps       ncg     rms          rms(c)
DAV:   1    -0.176389329490E+03    0.19739E-02   -0.25574E+00  3340   0.294E+00    0.104E-01
RMM:   2    -0.176392117164E+03   -0.27877E-02   -0.29633E-02  3245   0.756E-01    0.116E-01
RMM:   3    -0.176393537458E+03   -0.14203E-02   -0.16564E-02  4561   0.346E-01    0.854E-02
RMM:   4    -0.176393493875E+03    0.43583E-04   -0.50707E-04  3436   0.535E-02    0.741E-02
RMM:   5    -0.176393443401E+03    0.50473E-04   -0.10832E-04  3039   0.442E-02    0.632E-02
RMM:   6    -0.176393369793E+03    0.73608E-04   -0.25468E-04  3750   0.511E-02    0.384E-02
RMM:   7    -0.176393356226E+03    0.13567E-04   -0.10121E-04  3189   0.413E-02    0.170E-02
RMM:   8    -0.176393354818E+03    0.14080E-05   -0.28407E-05  2062   0.172E-02
  83 F= -.17639335E+03 E0= -.17637122E+03  d E =-.664044E-01
       N       E                     dE             d eps       ncg     rms          rms(c)
DAV:   1    -0.176389597725E+03    0.37585E-02   -0.25570E+00  3256   0.289E+00    0.999E-02
RMM:   2    -0.176392429864E+03   -0.28321E-02   -0.29828E-02  3257   0.745E-01    0.115E-01
RMM:   3    -0.176393861914E+03   -0.14320E-02   -0.16639E-02  4530   0.337E-01    0.789E-02
RMM:   4    -0.176393835807E+03    0.26107E-04   -0.52396E-04  3304   0.520E-02    0.698E-02
RMM:   5    -0.176393776430E+03    0.59377E-04   -0.11454E-04  3145   0.466E-02    0.561E-02
RMM:   6    -0.176393715746E+03    0.60684E-04   -0.26399E-04  3759   0.499E-02    0.285E-02
RMM:   7    -0.176393710395E+03    0.53510E-05   -0.58622E-05  2876   0.314E-02
  84 F= -.17639371E+03 E0= -.17637164E+03  d E =-.662116E-01
       N       E                     dE             d eps       ncg     rms          rms(c)
DAV:   1    -0.176386640848E+03    0.70749E-02   -0.25673E+00  3256   0.291E+00    0.124E-01
RMM:   2    -0.176389449053E+03   -0.28082E-02   -0.30311E-02  3251   0.757E-01    0.157E-01
RMM:   3    -0.176390562626E+03   -0.11136E-02   -0.15518E-02  4423   0.348E-01    0.819E-02
RMM:   4    -0.176390566222E+03   -0.35967E-05   -0.86207E-04  3483   0.637E-02    0.728E-02
RMM:   5    -0.176390514954E+03    0.51268E-04   -0.13729E-04  3227   0.499E-02    0.636E-02
RMM:   6    -0.176390438079E+03    0.76875E-04   -0.24281E-04  3520   0.538E-02    0.266E-02
RMM:   7    -0.176390435498E+03    0.25817E-05   -0.71730E-05  3025   0.328E-02
  85 F= -.17639044E+03 E0= -.17636833E+03  d E =-.663087E-01
       N       E                     dE             d eps       ncg     rms          rms(c)
DAV:   1    -0.176389707423E+03    0.73066E-03   -0.25589E+00  3356   0.294E+00    0.105E-01
RMM:   2    -0.176392473012E+03   -0.27656E-02   -0.29494E-02  3257   0.758E-01    0.119E-01
RMM:   3    -0.176393868624E+03   -0.13956E-02   -0.16333E-02  4556   0.342E-01    0.862E-02
RMM:   4    -0.176393821391E+03    0.47233E-04   -0.52464E-04  3825   0.538E-02    0.743E-02
RMM:   5    -0.176393767921E+03    0.53469E-04   -0.10139E-04  3122   0.416E-02    0.630E-02
RMM:   6    -0.176393691831E+03    0.76091E-04   -0.28858E-04  3905   0.527E-02    0.350E-02
RMM:   7    -0.176393681188E+03    0.10643E-04   -0.87167E-05  3171   0.386E-02    0.170E-02
RMM:   8    -0.176393679197E+03    0.19912E-05   -0.22172E-05  1951   0.154E-02
  86 F= -.17639368E+03 E0= -.17637158E+03  d E =-.662885E-01
       N       E                     dE             d eps       ncg     rms          rms(c)
DAV:   1    -0.176389155078E+03    0.45261E-02   -0.25570E+00  3264   0.289E+00    0.995E-02
RMM:   2    -0.176391977811E+03   -0.28227E-02   -0.29699E-02  3263   0.742E-01    0.116E-01
RMM:   3    -0.176393400040E+03   -0.14222E-02   -0.16536E-02  4527   0.336E-01    0.799E-02
RMM:   4    -0.176393372699E+03    0.27340E-04   -0.53969E-04  3315   0.527E-02    0.702E-02
RMM:   5    -0.176393316040E+03    0.56659E-04   -0.12644E-04  3166   0.486E-02    0.591E-02
RMM:   6    -0.176393251086E+03    0.64954E-04   -0.26453E-04  3715   0.511E-02    0.277E-02
RMM:   7    -0.176393246325E+03    0.47612E-05   -0.56224E-05  2758   0.292E-02
  87 F= -.17639325E+03 E0= -.17637110E+03  d E =-.664465E-01
       N       E                     dE             d eps       ncg     rms          rms(c)
DAV:   1    -0.176387312726E+03    0.59384E-02   -0.25660E+00  3280   0.290E+00    0.124E-01
RMM:   2    -0.176390119361E+03   -0.28066E-02   -0.30189E-02  3248   0.757E-01    0.161E-01
RMM:   3    -0.176391188790E+03   -0.10694E-02   -0.15275E-02  4404   0.347E-01    0.819E-02
RMM:   4    -0.176391195223E+03   -0.64330E-05   -0.90606E-04  3537   0.650E-02    0.728E-02
RMM:   5    -0.176391149090E+03    0.46133E-04   -0.13525E-04  3210   0.491E-02    0.656E-02
RMM:   6    -0.176391066740E+03    0.82349E-04   -0.25335E-04  3572   0.535E-02    0.263E-02
RMM:   7    -0.176391064097E+03    0.26437E-05   -0.65196E-05  2913   0.311E-02
  88 F= -.17639106E+03 E0= -.17636888E+03  d E =-.665507E-01
       N       E                     dE             d eps       ncg     rms          rms(c)
DAV:   1    -0.176389171337E+03    0.18954E-02   -0.25575E+00  3336   0.294E+00    0.105E-01
RMM:   2    -0.176391968429E+03   -0.27971E-02   -0.29705E-02  3249   0.757E-01    0.121E-01
RMM:   3    -0.176393371325E+03   -0.14029E-02   -0.16533E-02  4543   0.346E-01    0.855E-02
RMM:   4    -0.176393330778E+03    0.40546E-04   -0.53560E-04  3688   0.547E-02    0.745E-02
RMM:   5    -0.176393281891E+03    0.48887E-04   -0.10573E-04  3104   0.431E-02    0.643E-02
RMM:   6    -0.176393201795E+03    0.80096E-04   -0.26678E-04  3786   0.527E-02    0.357E-02
RMM:   7    -0.176393191670E+03    0.10125E-04   -0.97343E-05  3191   0.407E-02    0.175E-02
RMM:   8    -0.176393190297E+03    0.13725E-05   -0.27866E-05  2086   0.166E-02
  89 F= -.17639319E+03 E0= -.17637107E+03  d E =-.663464E-01
       N       E                     dE             d eps       ncg     rms          rms(c)
DAV:   1    -0.176389423623E+03    0.37680E-02   -0.25576E+00  3256   0.290E+00    0.998E-02
RMM:   2    -0.176392247024E+03   -0.28234E-02   -0.29734E-02  3261   0.747E-01    0.116E-01
RMM:   3    -0.176393660919E+03   -0.14139E-02   -0.16474E-02  4522   0.336E-01    0.797E-02
RMM:   4    -0.176393633304E+03    0.27615E-04   -0.52299E-04  3320   0.523E-02    0.703E-02
RMM:   5    -0.176393575491E+03    0.57813E-04   -0.12520E-04  3169   0.485E-02    0.589E-02
RMM:   6    -0.176393510499E+03    0.64992E-04   -0.26804E-04  3710   0.521E-02    0.286E-02
RMM:   7    -0.176393505669E+03    0.48300E-05   -0.62110E-05  2947   0.321E-02
  90 F= -.17639351E+03 E0= -.17637143E+03  d E =-.662280E-01
       N       E                     dE             d eps       ncg     rms          rms(c)
DAV:   1    -0.176387326452E+03    0.61840E-02   -0.25661E+00  3268   0.291E+00    0.124E-01
RMM:   2    -0.176390139031E+03   -0.28126E-02   -0.30273E-02  3254   0.760E-01    0.159E-01
RMM:   3    -0.176391238870E+03   -0.10998E-02   -0.15483E-02  4419   0.349E-01    0.821E-02
RMM:   4    -0.176391243264E+03   -0.43946E-05   -0.87379E-04  3522   0.641E-02    0.732E-02
RMM:   5    -0.176391200068E+03    0.43196E-04   -0.12471E-04  3176   0.471E-02    0.664E-02
RMM:   6    -0.176391115743E+03    0.84325E-04   -0.24106E-04  3582   0.517E-02    0.298E-02
RMM:   7    -0.176391112454E+03    0.32888E-05   -0.78793E-05  3133   0.352E-02
  91 F= -.17639111E+03 E0= -.17636900E+03  d E =-.663388E-01
       N       E                     dE             d eps       ncg     rms          rms(c)
DAV:   1    -0.176388662651E+03    0.24531E-02   -0.25576E+00  3348   0.294E+00    0.105E-01
RMM:   2    -0.176391469993E+03   -0.28073E-02   -0.29822E-02  3248   0.759E-01    0.122E-01
RMM:   3    -0.176392879037E+03   -0.14090E-02   -0.16651E-02  4543   0.348E-01    0.859E-02
RMM:   4    -0.176392837652E+03    0.41386E-04   -0.52574E-04  3517   0.545E-02    0.749E-02
RMM:   5    -0.176392790845E+03    0.46806E-04   -0.11165E-04  3076   0.449E-02    0.654E-02
RMM:   6    -0.176392708351E+03    0.82494E-04   -0.25303E-04  3695   0.524E-02    0.367E-02
RMM:   7    -0.176392697129E+03    0.11222E-04   -0.10640E-04  3205   0.423E-02    0.172E-02
RMM:   8    -0.176392696280E+03    0.84980E-06   -0.32435E-05  2191   0.178E-02
  92 F= -.17639270E+03 E0= -.17637061E+03  d E =-.662607E-01
       N       E                     dE             d eps       ncg     rms          rms(c)
DAV:   1    -0.176388612826E+03    0.40843E-02   -0.25565E+00  3272   0.290E+00    0.990E-02
RMM:   2    -0.176391429539E+03   -0.28167E-02   -0.29653E-02  3260   0.746E-01    0.113E-01
RMM:   3    -0.176392860239E+03   -0.14307E-02   -0.16515E-02  4524   0.337E-01    0.800E-02
RMM:   4    -0.176392830709E+03    0.29530E-04   -0.51866E-04  3346   0.524E-02    0.701E-02
RMM:   5    -0.176392775389E+03    0.55321E-04   -0.11657E-04  3118   0.464E-02    0.586E-02
RMM:   6    -0.176392709974E+03    0.65414E-04   -0.27031E-04  3775   0.510E-02    0.290E-02
RMM:   7    -0.176392704883E+03    0.50912E-05   -0.60185E-05  2917   0.316E-02
  93 F= -.17639270E+03 E0= -.17637061E+03  d E =-.662906E-01
       N       E                     dE             d eps       ncg     rms          rms(c)
DAV:   1    -0.176387528066E+03    0.51819E-02   -0.25661E+00  3264   0.291E+00    0.125E-01
RMM:   2    -0.176390357452E+03   -0.28294E-02   -0.30450E-02  3248   0.763E-01    0.163E-01
RMM:   3    -0.176391422097E+03   -0.10646E-02   -0.15360E-02  4400   0.350E-01    0.817E-02
RMM:   4    -0.176391433137E+03   -0.11040E-04   -0.94463E-04  3537   0.661E-02    0.731E-02
RMM:   5    -0.176391385065E+03    0.48072E-04   -0.12931E-04  3204   0.480E-02    0.649E-02
RMM:   6    -0.176391303877E+03    0.81188E-04   -0.24892E-04  3561   0.534E-02    0.285E-02
RMM:   7    -0.176391301121E+03    0.27555E-05   -0.74307E-05  3080   0.339E-02
  94 F= -.17639130E+03 E0= -.17636922E+03  d E =-.662509E-01
       N       E                     dE             d eps       ncg     rms          rms(c)
DAV:   1    -0.176389199034E+03    0.21048E-02   -0.25568E+00  3364   0.293E+00    0.105E-01
RMM:   2    -0.176392003168E+03   -0.28041E-02   -0.29794E-02  3254   0.755E-01    0.121E-01
RMM:   3    -0.176393407853E+03   -0.14047E-02   -0.16575E-02  4542   0.345E-01    0.858E-02
RMM:   4    -0.176393367721E+03    0.40132E-04   -0.54609E-04  3673   0.550E-02    0.748E-02
RMM:   5    -0.176393320932E+03    0.46788E-04   -0.10432E-04  3059   0.427E-02    0.652E-02
RMM:   6    -0.176393239195E+03    0.81738E-04   -0.26235E-04  3776   0.523E-02    0.372E-02
RMM:   7    -0.176393226911E+03    0.12284E-04   -0.10163E-04  3192   0.416E-02    0.175E-02
RMM:   8    -0.176393225702E+03    0.12081E-05   -0.29559E-05  2118   0.170E-02
  95 F= -.17639323E+03 E0= -.17637112E+03  d E =-.663046E-01
       N       E                     dE             d eps       ncg     rms          rms(c)
DAV:   1    -0.176389288227E+03    0.39387E-02   -0.25567E+00  3264   0.287E+00    0.992E-02
[...]
RMM:   6    -0.176393770682E+03    0.64114E-04   -0.33711E-04  3944   0.558E-02    0.339E-02
RMM:   7    -0.176393761736E+03    0.89465E-05   -0.55980E-05  2902   0.312E-02
 129 F= -.17639376E+03 E0= -.17637176E+03  d E =-.660044E-01
       N       E                     dE             d eps       ncg     rms          rms(c)
DAV:   1    -0.176392049187E+03    0.17215E-02   -0.25619E+00  3256   0.283E+00    0.100E-01
RMM:   2    -0.176394839579E+03   -0.27904E-02   -0.29640E-02  3256   0.729E-01    0.101E-01
RMM:   3    -0.176396345594E+03   -0.15060E-02   -0.16810E-02  4487   0.328E-01    0.864E-02
RMM:   4    -0.176396317527E+03    0.28067E-04   -0.57289E-04  3485   0.534E-02    0.753E-02
RMM:   5    -0.176396253312E+03    0.64215E-04   -0.10891E-04  3170   0.428E-02    0.614E-02
RMM:   6    -0.176396194171E+03    0.59140E-04   -0.33967E-04  3877   0.567E-02    0.315E-02
RMM:   7    -0.176396186968E+03    0.72033E-05   -0.51802E-05  2748   0.296E-02
 130 F= -.17639619E+03 E0= -.17637412E+03  d E =-.662104E-01
       N       E                     dE             d eps       ncg     rms          rms(c)
DAV:   1    -0.176389138085E+03    0.70561E-02   -0.25544E+00  3288   0.291E+00    0.107E-01
RMM:   2    -0.176392032913E+03   -0.28948E-02   -0.30901E-02  3268   0.760E-01    0.115E-01
RMM:   3    -0.176393627898E+03   -0.15950E-02   -0.18207E-02  4550   0.353E-01    0.884E-02
RMM:   4    -0.176393591160E+03    0.36737E-04   -0.59105E-04  3629   0.551E-02    0.782E-02
RMM:   5    -0.176393535843E+03    0.55318E-04   -0.91241E-05  2998   0.383E-02    0.657E-02
RMM:   6    -0.176393459733E+03    0.76109E-04   -0.33506E-04  4024   0.552E-02    0.357E-02
RMM:   7    -0.176393451743E+03    0.79904E-05   -0.76788E-05  3109   0.364E-02
 131 F= -.17639345E+03 E0= -.17637138E+03  d E =-.662274E-01
       N       E                     dE             d eps       ncg     rms          rms(c)
DAV:   1    -0.176389379265E+03    0.40805E-02   -0.25598E+00  3256   0.288E+00    0.102E-01
RMM:   2    -0.176392190546E+03   -0.28113E-02   -0.29765E-02  3253   0.740E-01    0.101E-01
RMM:   3    -0.176393718342E+03   -0.15278E-02   -0.17015E-02  4526   0.334E-01    0.870E-02
RMM:   4    -0.176393680803E+03    0.37540E-04   -0.55344E-04  3564   0.532E-02    0.753E-02
RMM:   5    -0.176393608549E+03    0.72253E-04   -0.10456E-04  3179   0.413E-02    0.593E-02
RMM:   6    -0.176393551596E+03    0.56954E-04   -0.33554E-04  3944   0.567E-02    0.323E-02
RMM:   7    -0.176393542201E+03    0.93943E-05   -0.52638E-05  2812   0.301E-02
 132 F= -.17639354E+03 E0= -.17637148E+03  d E =-.661721E-01
       N       E                     dE             d eps       ncg     rms          rms(c)
DAV:   1    -0.176391059994E+03    0.24916E-02   -0.25601E+00  3248   0.289E+00    0.101E-01
RMM:   2    -0.176393855102E+03   -0.27951E-02   -0.29675E-02  3248   0.745E-01    0.102E-01
RMM:   3    -0.176395385139E+03   -0.15300E-02   -0.17030E-02  4536   0.336E-01    0.866E-02
RMM:   4    -0.176395352669E+03    0.32469E-04   -0.54245E-04  3557   0.524E-02    0.753E-02
RMM:   5    -0.176395284056E+03    0.68613E-04   -0.10979E-04  3188   0.430E-02    0.595E-02
RMM:   6    -0.176395230633E+03    0.53424E-04   -0.34045E-04  3925   0.570E-02    0.305E-02
RMM:   7    -0.176395222584E+03    0.80489E-05   -0.47394E-05  2599   0.280E-02
 133 F= -.17639522E+03 E0= -.17637314E+03  d E =-.662513E-01
       N       E                     dE             d eps       ncg     rms          rms(c)
DAV:   1    -0.176388841878E+03    0.63888E-02   -0.25522E+00  3324   0.291E+00    0.106E-01
RMM:   2    -0.176391749944E+03   -0.29081E-02   -0.30941E-02  3270   0.765E-01    0.118E-01
RMM:   3    -0.176393326259E+03   -0.15763E-02   -0.18030E-02  4551   0.349E-01    0.873E-02
RMM:   4    -0.176393289418E+03    0.36841E-04   -0.56861E-04  3633   0.540E-02    0.773E-02
RMM:   5    -0.176393217142E+03    0.72277E-04   -0.98902E-05  3037   0.403E-02    0.597E-02
RMM:   6    -0.176393163126E+03    0.54016E-04   -0.37332E-04  4059   0.585E-02    0.351E-02
RMM:   7    -0.176393152331E+03    0.10795E-04   -0.61723E-05  2955   0.326E-02    0.198E-02
RMM:   8    -0.176393148370E+03    0.39616E-05   -0.15972E-05  1874   0.142E-02
 134 F= -.17639315E+03 E0= -.17637105E+03  d E =-.662866E-01
       N       E                     dE             d eps       ncg     rms          rms(c)
DAV:   1    -0.176389625572E+03    0.35268E-02   -0.25597E+00  3264   0.284E+00    0.101E-01
RMM:   2    -0.176392425987E+03   -0.28004E-02   -0.29660E-02  3260   0.730E-01    0.988E-02
RMM:   3    -0.176393944608E+03   -0.15186E-02   -0.16849E-02  4536   0.328E-01    0.859E-02
RMM:   4    -0.176393904249E+03    0.40359E-04   -0.53776E-04  3569   0.518E-02    0.736E-02
RMM:   5    -0.176393819469E+03    0.84780E-04   -0.10986E-04  3222   0.418E-02    0.524E-02
RMM:   6    -0.176393781643E+03    0.37826E-04   -0.32789E-04  3879   0.567E-02    0.311E-02
RMM:   7    -0.176393771181E+03    0.10462E-04   -0.42305E-05  2484   0.264E-02    0.171E-02
RMM:   8    -0.176393768388E+03    0.27929E-05   -0.13715E-05  1847   0.129E-02
 135 F= -.17639377E+03 E0= -.17637167E+03  d E =-.662955E-01
       N       E                     dE             d eps       ncg     rms          rms(c)
DAV:   1    -0.176390386704E+03    0.33845E-02   -0.25600E+00  3268   0.284E+00    0.101E-01
RMM:   2    -0.176393177910E+03   -0.27912E-02   -0.29626E-02  3253   0.729E-01    0.986E-02
RMM:   3    -0.176394712662E+03   -0.15348E-02   -0.16983E-02  4501   0.328E-01    0.858E-02
RMM:   4    -0.176394680024E+03    0.32638E-04   -0.54897E-04  3511   0.523E-02    0.738E-02
RMM:   5    -0.176394598463E+03    0.81561E-04   -0.12106E-04  3238   0.441E-02    0.531E-02
RMM:   6    -0.176394562516E+03    0.35947E-04   -0.32124E-04  3801   0.570E-02    0.296E-02
RMM:   7    -0.176394554347E+03    0.81691E-05   -0.43145E-05  2502   0.264E-02
 136 F= -.17639455E+03 E0= -.17637248E+03  d E =-.662152E-01
       N       E                     dE             d eps       ncg     rms          rms(c)
DAV:   1    -0.176389744364E+03    0.48182E-02   -0.25526E+00  3332   0.291E+00    0.108E-01
RMM:   2    -0.176392645346E+03   -0.29010E-02   -0.31006E-02  3272   0.760E-01    0.117E-01
RMM:   3    -0.176394238038E+03   -0.15927E-02   -0.18265E-02  4543   0.353E-01    0.878E-02
RMM:   4    -0.176394201211E+03    0.36827E-04   -0.59258E-04  3656   0.554E-02    0.776E-02
RMM:   5    -0.176394139483E+03    0.61729E-04   -0.94352E-05  3008   0.387E-02    0.628E-02
RMM:   6    -0.176394074191E+03    0.65292E-04   -0.33027E-04  4015   0.551E-02    0.359E-02
RMM:   7    -0.176394064966E+03    0.92250E-05   -0.72870E-05  3094   0.354E-02
 137 F= -.17639406E+03 E0= -.17637197E+03  d E =-.662776E-01
       N       E                     dE             d eps       ncg     rms          rms(c)
DAV:   1    -0.176389401248E+03    0.46729E-02   -0.25598E+00  3268   0.288E+00    0.102E-01
RMM:   2    -0.176392214925E+03   -0.28137E-02   -0.29848E-02  3263   0.739E-01    0.104E-01
RMM:   3    -0.176393735355E+03   -0.15204E-02   -0.17034E-02  4520   0.334E-01    0.867E-02
RMM:   4    -0.176393697621E+03    0.37734E-04   -0.56012E-04  3563   0.533E-02    0.751E-02
RMM:   5    -0.176393616789E+03    0.80832E-04   -0.10935E-04  3196   0.420E-02    0.559E-02
RMM:   6    -0.176393569627E+03    0.47163E-04   -0.33001E-04  3901   0.564E-02    0.321E-02
RMM:   7    -0.176393560158E+03    0.94686E-05   -0.49629E-05  2682   0.289E-02
 138 F= -.17639356E+03 E0= -.17637150E+03  d E =-.661802E-01
       N       E                     dE             d eps       ncg     rms          rms(c)
DAV:   1    -0.176391271887E+03    0.22977E-02   -0.25608E+00  3252   0.289E+00    0.101E-01
RMM:   2    -0.176394054866E+03   -0.27830E-02   -0.29609E-02  3250   0.744E-01    0.995E-02
RMM:   3    -0.176395575307E+03   -0.15204E-02   -0.16882E-02  4531   0.334E-01    0.865E-02
RMM:   4    -0.176395541074E+03    0.34233E-04   -0.54156E-04  3545   0.526E-02    0.750E-02
RMM:   5    -0.176395467975E+03    0.73099E-04   -0.10731E-04  3185   0.420E-02    0.573E-02
RMM:   6    -0.176395420385E+03    0.47590E-04   -0.32458E-04  3890   0.559E-02    0.321E-02
RMM:   7    -0.176395411900E+03    0.84848E-05   -0.53513E-05  2781   0.301E-02
 139 F= -.17639541E+03 E0= -.17637335E+03  d E =-.661834E-01
       N       E                     dE             d eps       ncg     rms          rms(c)
DAV:   1    -0.176389461009E+03    0.59594E-02   -0.25532E+00  3304   0.292E+00    0.107E-01
RMM:   2    -0.176392358101E+03   -0.28971E-02   -0.30906E-02  3276   0.763E-01    0.115E-01
RMM:   3    -0.176393956280E+03   -0.15982E-02   -0.18213E-02  4546   0.354E-01    0.877E-02
RMM:   4    -0.176393920499E+03    0.35781E-04   -0.58784E-04  3673   0.552E-02    0.776E-02
RMM:   5    -0.176393861940E+03    0.58558E-04   -0.89292E-05  2878   0.376E-02    0.639E-02
RMM:   6    -0.176393791903E+03    0.70037E-04   -0.32223E-04  4023   0.545E-02    0.370E-02
RMM:   7    -0.176393782608E+03    0.92958E-05   -0.79434E-05  3124   0.370E-02
 140 F= -.17639378E+03 E0= -.17637170E+03  d E =-.662448E-01
       N       E                     dE             d eps       ncg     rms          rms(c)
DAV:   1    -0.176388766278E+03    0.50256E-02   -0.25601E+00  3256   0.287E+00    0.102E-01
RMM:   2    -0.176391587438E+03   -0.28212E-02   -0.29878E-02  3263   0.738E-01    0.106E-01
RMM:   3    -0.176393107263E+03   -0.15198E-02   -0.17057E-02  4526   0.334E-01    0.867E-02
RMM:   4    -0.176393069869E+03    0.37394E-04   -0.54762E-04  3615   0.529E-02    0.755E-02
RMM:   5    -0.176393006502E+03    0.63367E-04   -0.97742E-05  3096   0.401E-02    0.622E-02
RMM:   6    -0.176392940847E+03    0.65656E-04   -0.33710E-04  3963   0.557E-02    0.333E-02
RMM:   7    -0.176392931745E+03    0.91014E-05   -0.55930E-05  2888   0.311E-02
 141 F= -.17639293E+03 E0= -.17637085E+03  d E =-.662573E-01
       N       E                     dE             d eps       ncg     rms          rms(c)
DAV:   1    -0.176391261586E+03    0.16793E-02   -0.25606E+00  3244   0.288E+00    0.100E-01
RMM:   2    -0.176394050237E+03   -0.27887E-02   -0.29626E-02  3254   0.740E-01    0.100E-01
RMM:   3    -0.176395571649E+03   -0.15214E-02   -0.16917E-02  4532   0.333E-01    0.860E-02
RMM:   4    -0.176395541516E+03    0.30133E-04   -0.55018E-04  3509   0.529E-02    0.751E-02
RMM:   5    -0.176395468444E+03    0.73071E-04   -0.11426E-04  3210   0.437E-02    0.574E-02
RMM:   6    -0.176395419785E+03    0.48659E-04   -0.32914E-04  3856   0.571E-02    0.304E-02
RMM:   7    -0.176395411664E+03    0.81209E-05   -0.49840E-05  2661   0.287E-02
 142 F= -.17639541E+03 E0= -.17637328E+03  d E =-.663815E-01
       N       E                     dE             d eps       ncg     rms          rms(c)
DAV:   1    -0.176388550338E+03    0.68694E-02   -0.25527E+00  3316   0.292E+00    0.106E-01
RMM:   2    -0.176391442256E+03   -0.28919E-02   -0.30831E-02  3265   0.762E-01    0.112E-01
RMM:   3    -0.176393059094E+03   -0.16168E-02   -0.18305E-02  4543   0.354E-01    0.878E-02
RMM:   4    -0.176393024254E+03    0.34840E-04   -0.59670E-04  3684   0.557E-02    0.774E-02
RMM:   5    -0.176392964299E+03    0.59955E-04   -0.87147E-05  2839   0.369E-02    0.631E-02
RMM:   6    -0.176392898097E+03    0.66203E-04   -0.33482E-04  4075   0.550E-02    0.372E-02
RMM:   7    -0.176392888295E+03    0.98017E-05   -0.74245E-05  3105   0.358E-02
 143 F= -.17639289E+03 E0= -.17637081E+03  d E =-.662229E-01
       N       E                     dE             d eps       ncg     rms          rms(c)
DAV:   1    -0.176389377225E+03    0.35209E-02   -0.25602E+00  3260   0.288E+00    0.102E-01
RMM:   2    -0.176392193446E+03   -0.28162E-02   -0.29900E-02  3263   0.741E-01    0.104E-01
RMM:   3    -0.176393716427E+03   -0.15230E-02   -0.17060E-02  4524   0.334E-01    0.871E-02
RMM:   4    -0.176393677787E+03    0.38640E-04   -0.55448E-04  3594   0.533E-02    0.754E-02
RMM:   5    -0.176393600875E+03    0.76912E-04   -0.11167E-04  3224   0.428E-02    0.581E-02
RMM:   6    -0.176393548312E+03    0.52563E-04   -0.34170E-04  3914   0.577E-02    0.316E-02
RMM:   7    -0.176393538622E+03    0.96900E-05   -0.49023E-05  2674   0.288E-02
 144 F= -.17639354E+03 E0= -.17637148E+03  d E =-.661779E-01
       N       E                     dE             d eps       ncg     rms          rms(c)
DAV:   1    -0.176391052621E+03    0.24957E-02   -0.25601E+00  3248   0.289E+00    0.101E-01
RMM:   2    -0.176393846549E+03   -0.27939E-02   -0.29661E-02  3248   0.745E-01    0.101E-01
RMM:   3    -0.176395376145E+03   -0.15296E-02   -0.17011E-02  4535   0.336E-01    0.864E-02
RMM:   4    -0.176395344402E+03    0.31743E-04   -0.55021E-04  3565   0.529E-02    0.752E-02
RMM:   5    -0.176395276974E+03    0.67428E-04   -0.10830E-04  3182   0.426E-02    0.596E-02
RMM:   6    -0.176395222896E+03    0.54077E-04   -0.33813E-04  3929   0.568E-02    0.304E-02
RMM:   7    -0.176395215095E+03    0.78011E-05   -0.47521E-05  2597   0.280E-02
 145 F= -.17639522E+03 E0= -.17637313E+03  d E =-.662553E-01
       N       E                     dE             d eps       ncg     rms          rms(c)
DAV:   1    -0.176388138497E+03    0.70844E-02   -0.21604E+00  3240   0.268E+00    0.166E-01
RMM:   2    -0.176391824378E+03   -0.36859E-02   -0.39973E-02  3296   0.704E-01    0.106E-01
RMM:   3    -0.176393295019E+03   -0.14706E-02   -0.17186E-02  4157   0.343E-01    0.123E-01
RMM:   4    -0.176393178797E+03    0.11622E-03   -0.15488E-03  3522   0.126E-01    0.660E-02
RMM:   5    -0.176393187727E+03   -0.89299E-05   -0.51456E-04  3644   0.645E-02    0.579E-02
RMM:   6    -0.176393158983E+03    0.28744E-04   -0.19220E-04  3286   0.535E-02    0.262E-02
RMM:   7    -0.176393160074E+03   -0.10912E-05   -0.93582E-05  3207   0.340E-02
 146 F= -.17639316E+03 E0= -.17637105E+03  d E =-.663212E-01
       N       E                     dE             d eps       ncg     rms          rms(c)
DAV:   1    -0.176383815086E+03    0.93439E-02   -0.17408E+00  3240   0.195E+00    0.211E-01
RMM:   2    -0.176387154201E+03   -0.33391E-02   -0.35257E-02  3300   0.468E-01    0.189E-01
RMM:   3    -0.176387838581E+03   -0.68438E-03   -0.12907E-02  3616   0.259E-01    0.132E-01
RMM:   4    -0.176387700721E+03    0.13786E-03   -0.15962E-03  3324   0.139E-01    0.769E-02
RMM:   5    -0.176387691056E+03    0.96644E-05   -0.62538E-04  3430   0.803E-02    0.522E-02
RMM:   6    -0.176387701013E+03   -0.99572E-05   -0.27372E-04  3281   0.564E-02    0.368E-02
RMM:   7    -0.176387689572E+03    0.11442E-04   -0.11161E-04  3161   0.404E-02    0.862E-03
RMM:   8    -0.176387694713E+03   -0.51409E-05   -0.52492E-05  2452   0.181E-02
 147 F= -.17638769E+03 E0= -.17636573E+03  d E =-.658951E-01
       N       E                     dE             d eps       ncg     rms          rms(c)
DAV:   1    -0.176368127939E+03    0.19562E-01   -0.16885E+00  3240   0.190E+00    0.187E-01
RMM:   2    -0.176371131659E+03   -0.30037E-02   -0.34330E-02  3324   0.467E-01    0.131E-01
RMM:   3    -0.176372217100E+03   -0.10854E-02   -0.12537E-02  3456   0.278E-01    0.162E-01
RMM:   4    -0.176372000266E+03    0.21683E-03   -0.17613E-03  3387   0.137E-01    0.564E-02
RMM:   5    -0.176372051065E+03   -0.50799E-04   -0.71831E-04  3931   0.672E-02    0.499E-02
RMM:   6    -0.176372037930E+03    0.13136E-04   -0.13068E-04  3217   0.465E-02    0.293E-02
RMM:   7    -0.176372031808E+03    0.61216E-05   -0.54900E-05  2729   0.306E-02
 148 F= -.17637203E+03 E0= -.17634984E+03  d E =-.665759E-01
       N       E                     dE             d eps       ncg     rms          rms(c)
DAV:   1    -0.176391134116E+03   -0.19096E-01   -0.94101E-01  3240   0.134E+00    0.239E-01
RMM:   2    -0.176394258117E+03   -0.31240E-02   -0.28830E-02  3284   0.386E-01    0.267E-01
RMM:   3    -0.176394020497E+03    0.23762E-03   -0.99069E-03  3399   0.267E-01    0.145E-01
RMM:   4    -0.176393899216E+03    0.12128E-03   -0.15488E-03  3315   0.136E-01    0.732E-02
RMM:   5    -0.176393895362E+03    0.38540E-05   -0.53684E-04  3388   0.746E-02    0.531E-02
RMM:   6    -0.176393903854E+03   -0.84920E-05   -0.27167E-04  3297   0.556E-02    0.316E-02
RMM:   7    -0.176393897289E+03    0.65647E-05   -0.10993E-04  3213   0.408E-02    0.115E-02
RMM:   8    -0.176393899911E+03   -0.26224E-05   -0.42373E-05  2304   0.185E-02
 149 F= -.17639390E+03 E0= -.17637180E+03  d E =-.663051E-01
       N       E                     dE             d eps       ncg     rms          rms(c)
DAV:   1    -0.176389361551E+03    0.45357E-02   -0.14248E-01  3304   0.367E-01    0.150E-01
RMM:   2    -0.176389755056E+03   -0.39351E-03   -0.37954E-03  3248   0.117E-01    0.141E-01
RMM:   3    -0.176389631627E+03    0.12343E-03   -0.12086E-03  3315   0.100E-01    0.885E-02
RMM:   4    -0.176389643717E+03   -0.12090E-04   -0.47625E-04  3285   0.878E-02    0.618E-02
RMM:   5    -0.176389625434E+03    0.18284E-04   -0.17531E-04  3205   0.529E-02    0.180E-02
RMM:   6    -0.176389629459E+03   -0.40251E-05   -0.61506E-05  2565   0.271E-02
 150 F= -.17638963E+03 E0= -.17636752E+03  d E =-.663311E-01
       N       E                     dE             d eps       ncg     rms          rms(c)
DAV:   1    -0.176397949948E+03   -0.83245E-02   -0.13803E-01  3304   0.375E-01    0.139E-01
RMM:   2    -0.176398332519E+03   -0.38257E-03   -0.31483E-03  3312   0.110E-01    0.128E-01
RMM:   3    -0.176398257008E+03    0.75511E-04   -0.14796E-03  3309   0.912E-02    0.823E-02
RMM:   4    -0.176398256132E+03    0.87543E-06   -0.38425E-04  3284   0.791E-02    0.571E-02
RMM:   5    -0.176398251196E+03    0.49363E-05   -0.13511E-04  3129   0.434E-02    0.162E-02
RMM:   6    -0.176398253941E+03   -0.27455E-05   -0.49379E-05  2382   0.250E-02
 151 F= -.17639825E+03 E0= -.17637616E+03  d E =-.662867E-01
       N       E                     dE             d eps       ncg     rms          rms(c)
DAV:   1    -0.176394157299E+03    0.40939E-02   -0.13315E-01  3264   0.469E-01    0.186E-01
RMM:   2    -0.176394729216E+03   -0.57192E-03   -0.42373E-03  3309   0.130E-01    0.227E-01
RMM:   3    -0.176393986892E+03    0.74232E-03   -0.16696E-03  3302   0.134E-01    0.100E-01
RMM:   4    -0.176393938068E+03    0.48824E-04   -0.55875E-04  3297   0.944E-02    0.633E-02
RMM:   5    -0.176393921224E+03    0.16844E-04   -0.17608E-04  3213   0.459E-02    0.235E-02
RMM:   6    -0.176393926953E+03   -0.57292E-05   -0.83195E-05  3119   0.350E-02
 152 F= -.17639393E+03 E0= -.17637181E+03  d E =-.663505E-01
       N       E                     dE             d eps       ncg     rms          rms(c)
DAV:   1    -0.176401113850E+03   -0.71926E-02   -0.11847E-01  3256   0.466E-01    0.812E-02
RMM:   2    -0.176401202577E+03   -0.88727E-04   -0.96916E-04  3309   0.869E-02    0.853E-02
RMM:   3    -0.176401058733E+03    0.14384E-03   -0.27909E-04  3243   0.582E-02    0.384E-02
RMM:   4    -0.176401045894E+03    0.12839E-04   -0.10718E-04  3029   0.430E-02    0.165E-02
RMM:   5    -0.176401047911E+03   -0.20171E-05   -0.37069E-05  2200   0.201E-02    0.909E-03
RMM:   6    -0.176401049685E+03   -0.17739E-05   -0.15539E-05  1911   0.156E-02
 153 F= -.17640105E+03 E0= -.17637884E+03  d E =-.666374E-01
       N       E                     dE             d eps       ncg     rms          rms(c)
DAV:   1    -0.176374114048E+03    0.26934E-01   -0.11716E-01  3240   0.442E-01    0.100E-01
RMM:   2    -0.176374170187E+03   -0.56139E-04   -0.13451E-03  3281   0.116E-01    0.924E-02
RMM:   3    -0.176374004367E+03    0.16582E-03   -0.38640E-04  3250   0.724E-02    0.449E-02
RMM:   4    -0.176373982021E+03    0.22346E-04   -0.13495E-04  3136   0.483E-02    0.174E-02
RMM:   5    -0.176373983111E+03   -0.10909E-05   -0.46107E-05  2278   0.225E-02    0.947E-03
RMM:   6    -0.176373983796E+03   -0.68477E-06   -0.16839E-05  1948   0.155E-02
 154 F= -.17637398E+03 E0= -.17635184E+03  d E =-.664420E-01
