<?xml version="1.0" encoding="ISO-8859-1"?>
<modeling>
 <generator>
  <i name="program" type="string">vasp </i>
  <i name="version" type="string">6.4.1  </i>
  <i name="subversion" type="string">05Apr23 (build Jun 16 2023 21:11:36) complex                          parallel </i>
  <i name="platform" type="string">LinuxIFC </i>
  <i name="date" type="string">2026 03 07 </i>
  <i name="time" type="string">16:54:46 </i>
 </generator>
 <incar>
  <i type="string" name="SYSTEM">Bulk Frequency (Finite Difference)</i>
  <i type="string" name="ALGO">F</i>
  <i type="int" name="NELM">   150</i>
  <i type="int" name="NELMIN">     6</i>
  <i type="int" name="IBRION">     5</i>
  <i type="int" name="NFREE">     1</i>
  <i name="EDIFF">      0.00001000</i>
  <i type="int" name="ISIF">     2</i>
  <i type="int" name="ISYM">     0</i>
  <i name="ENCUT">    500.00000000</i>
  <i name="POTIM">      0.01500000</i>
  <i type="string" name="LREAL">Auto</i>
  <i type="int" name="ISMEAR">     1</i>
  <i name="SIGMA">      0.10000000</i>
  <i type="logical" name="LWAVE"> F  </i>
  <i type="logical" name="LCHARG"> F  </i>
 </incar>
 <primitive_cell>
  <structure name="primitive_cell" >
   <crystal>
    <varray name="basis" >
     <v>      10.11850195       0.00000000       0.00000000 </v>
     <v>      -5.05925097       8.76287974       0.00000000 </v>
     <v>       0.00000000       0.00000000      18.58887505 </v>
    </varray>
    <i name="volume">   1648.22379336 </i>
    <varray name="rec_basis" >
     <v>       0.09882886       0.05705887      -0.00000000 </v>
     <v>       0.00000000       0.11411774      -0.00000000 </v>
     <v>       0.00000000       0.00000000       0.05379562 </v>
    </varray>
   </crystal>
   <varray name="positions" >
    <v>       0.99904304       0.00090621       0.61211041 </v>
    <v>       0.00015586       0.25029098       0.61424211 </v>
    <v>       0.99785550       0.49818244       0.61332683 </v>
    <v>       0.99577386       0.74883338       0.61118244 </v>
    <v>       0.24461825       0.00349658       0.61785775 </v>
    <v>       0.25038876       0.25251671       0.61203141 </v>
    <v>       0.25028306       0.49816929       0.61333556 </v>
    <v>       0.24714372       0.74430019       0.60079812 </v>
    <v>       0.50889131       0.00349596       0.61783904 </v>
    <v>       0.50343632       0.25687246       0.61055064 </v>
    <v>       0.50086962       0.50136773       0.61349391 </v>
    <v>       0.50303909       0.74882950       0.61118529 </v>
    <v>       0.75186545       0.00092911       0.61210956 </v>
    <v>       0.75212443       0.25252145       0.61203018 </v>
    <v>       0.75047971       0.50135286       0.61349339 </v>
    <v>       0.75038618       0.75071074       0.61329459 </v>
    <v>       0.08333834       0.16669679       0.38889480 </v>
    <v>       0.08329087       0.41658144       0.38881589 </v>
    <v>       0.08324173       0.66661886       0.38874480 </v>
    <v>       0.08328270       0.91671784       0.38880154 </v>
    <v>       0.33333537       0.16668690       0.38887502 </v>
    <v>       0.33334319       0.41662617       0.38884724 </v>
    <v>       0.33337781       0.66661929       0.38874475 </v>
    <v>       0.33337641       0.91675291       0.38874120 </v>
    <v>       0.58335169       0.16668593       0.38887505 </v>
    <v>       0.58336653       0.41667220       0.38889273 </v>
    <v>       0.58337471       0.66665318       0.38883971 </v>
    <v>       0.58343639       0.91671784       0.38880153 </v>
    <v>       0.83335869       0.16669603       0.38889492 </v>
    <v>       0.83328481       0.41662614       0.38884732 </v>
    <v>       0.83327927       0.66665341       0.38883985 </v>
    <v>       0.83336484       0.91667708       0.38887599 </v>
    <v>       0.16663061       0.08335862       0.49997106 </v>
    <v>       0.16663104       0.33320961       0.49993484 </v>
    <v>       0.16617957       0.58235651       0.49922243 </v>
    <v>       0.16616722       0.83380641       0.49920896 </v>
    <v>       0.41681461       0.08362931       0.49981018 </v>
    <v>       0.41664571       0.33340356       0.50001824 </v>
    <v>       0.41682090       0.58318171       0.49982316 </v>
    <v>       0.41763983       0.83380691       0.49920845 </v>
    <v>       0.66672856       0.08335851       0.49997100 </v>
    <v>       0.66675827       0.33340352       0.50001867 </v>
    <v>       0.66664242       0.58329966       0.49995707 </v>
    <v>       0.66688149       0.83338414       0.49988368 </v>
    <v>       0.91672152       0.08343114       0.50002006 </v>
    <v>       0.91657885       0.33320917       0.49993500 </v>
    <v>       0.91636061       0.58318032       0.49982338 </v>
    <v>       0.91650190       0.83338303       0.49988432 </v>
    <v>       0.35847512       0.96690304       0.68982277 </v>
    <v>       0.39203977       0.03392248       0.73480591 </v>
    <v>       0.24171629       0.73359511       0.72654997 </v>
   </varray>
  </structure>
  <varray name="primitive_index" >
   <v type="int" >        1 </v>
   <v type="int" >        2 </v>
   <v type="int" >        3 </v>
   <v type="int" >        4 </v>
   <v type="int" >        5 </v>
   <v type="int" >        6 </v>
   <v type="int" >        7 </v>
   <v type="int" >        8 </v>
   <v type="int" >        9 </v>
   <v type="int" >       10 </v>
   <v type="int" >       11 </v>
   <v type="int" >       12 </v>
   <v type="int" >       13 </v>
   <v type="int" >       14 </v>
   <v type="int" >       15 </v>
   <v type="int" >       16 </v>
   <v type="int" >       17 </v>
   <v type="int" >       18 </v>
   <v type="int" >       19 </v>
   <v type="int" >       20 </v>
   <v type="int" >       21 </v>
   <v type="int" >       22 </v>
   <v type="int" >       23 </v>
   <v type="int" >       24 </v>
   <v type="int" >       25 </v>
   <v type="int" >       26 </v>
   <v type="int" >       27 </v>
   <v type="int" >       28 </v>
   <v type="int" >       29 </v>
   <v type="int" >       30 </v>
   <v type="int" >       31 </v>
   <v type="int" >       32 </v>
   <v type="int" >       33 </v>
   <v type="int" >       34 </v>
   <v type="int" >       35 </v>
   <v type="int" >       36 </v>
   <v type="int" >       37 </v>
   <v type="int" >       38 </v>
   <v type="int" >       39 </v>
   <v type="int" >       40 </v>
   <v type="int" >       41 </v>
   <v type="int" >       42 </v>
   <v type="int" >       43 </v>
   <v type="int" >       44 </v>
   <v type="int" >       45 </v>
   <v type="int" >       46 </v>
   <v type="int" >       47 </v>
   <v type="int" >       48 </v>
   <v type="int" >       49 </v>
   <v type="int" >       50 </v>
   <v type="int" >       51 </v>
  </varray>
 </primitive_cell>
 <kpoints>
  <generation param="Gamma">
   <v type="int" name="divisions">       3        3        1 </v>
   <v name="usershift">      0.00000000       0.00000000       0.00000000 </v>
   <v name="genvec1">      0.33333333       0.00000000       0.00000000 </v>
   <v name="genvec2">      0.00000000       0.33333333       0.00000000 </v>
   <v name="genvec3">      0.00000000       0.00000000       1.00000000 </v>
   <v name="shift">      0.00000000       0.00000000       0.00000000 </v>
  </generation>
  <varray name="kpointlist" >
   <v>       0.00000000       0.00000000       0.00000000 </v>
   <v>       0.33333333       0.00000000      -0.00000000 </v>
   <v>       0.00000000       0.33333333      -0.00000000 </v>
   <v>      -0.33333333       0.33333333      -0.00000000 </v>
   <v>       0.33333333       0.33333333      -0.00000000 </v>
  </varray>
  <varray name="weights" >
   <v>       0.11111111 </v>
   <v>       0.22222222 </v>
   <v>       0.22222222 </v>
   <v>       0.22222222 </v>
   <v>       0.22222222 </v>
  </varray>
 </kpoints>
 <parameters>
  <separator name="general" >
   <i type="string" name="SYSTEM">Bulk Frequency (Finite Difference)</i>
   <i type="logical" name="LCOMPAT"> F  </i>
  </separator>
  <separator name="electronic" >
   <i type="string" name="PREC">normal</i>
   <i name="ENMAX">    500.00000000</i>
   <i name="ENAUG">    627.11200000</i>
   <i name="EDIFF">      0.00001000</i>
   <i type="int" name="IALGO">    68</i>
   <i type="int" name="IWAVPR">    11</i>
   <i type="int" name="NBANDS">   324</i>
   <i type="int" name="NBANDSLOW">    -1</i>
   <i type="int" name="NBANDSHIGH">    -1</i>
   <i name="NELECT">    535.00000000</i>
   <i type="int" name="TURBO">     0</i>
   <i type="int" name="IRESTART">     0</i>
   <i type="int" name="NREBOOT">     0</i>
   <i type="int" name="NMIN">     0</i>
   <i name="EREF">      0.00000000</i>
   <separator name="electronic smearing" >
    <i type="int" name="ISMEAR">     1</i>
    <i name="SIGMA">      0.10000000</i>
    <i name="KSPACING">      0.50000000</i>
    <i type="logical" name="KGAMMA"> T  </i>
    <i type="logical" name="KBLOWUP"> T  </i>
   </separator>
   <separator name="electronic projectors" >
    <i type="logical" name="LREAL"> T  </i>
    <v name="ROPT">     -0.00050000     -0.00050000     -0.00050000</v>
    <i type="int" name="LMAXPAW">  -100</i>
    <i type="int" name="LMAXMIX">     2</i>
    <i type="logical" name="NLSPLINE"> F  </i>
   </separator>
   <separator name="electronic startup" >
    <i type="int" name="ISTART">     0</i>
    <i type="int" name="ICHARG">     2</i>
    <i type="int" name="INIWAV">     1</i>
   </separator>
   <separator name="electronic spin" >
    <i type="int" name="ISPIN">     1</i>
    <i type="logical" name="LNONCOLLINEAR"> F  </i>
    <v name="MAGMOM">      1.00000000      1.00000000      1.00000000      1.00000000      1.00000000      1.00000000      1.00000000      1.00000000      1.00000000      1.00000000      1.00000000      1.00000000      1.00000000      1.00000000      1.00000000      1.00000000      1.00000000      1.00000000      1.00000000      1.00000000
      1.00000000      1.00000000      1.00000000      1.00000000      1.00000000      1.00000000      1.00000000      1.00000000      1.00000000      1.00000000      1.00000000      1.00000000      1.00000000      1.00000000      1.00000000      1.00000000      1.00000000      1.00000000      1.00000000      1.00000000
      1.00000000      1.00000000      1.00000000      1.00000000      1.00000000      1.00000000      1.00000000      1.00000000      1.00000000      1.00000000      1.00000000</v>
    <i name="NUPDOWN">     -1.00000000</i>
    <i type="logical" name="LSORBIT"> F  </i>
    <v name="SAXIS">      0.00000000      0.00000000      1.00000000</v>
    <i type="logical" name="LSPIRAL"> F  </i>
    <v name="QSPIRAL">      0.00000000      0.00000000      0.00000000</v>
    <i type="logical" name="LZEROZ"> F  </i>
   </separator>
   <separator name="electronic exchange-correlation" >
    <i type="logical" name="LASPH"> F  </i>
    <i type="logical" name="LMETAGGA"> F  </i>
   </separator>
   <separator name="electronic convergence" >
    <i type="int" name="NELM">   150</i>
    <i type="int" name="NELMDL">    -5</i>
    <i type="int" name="NELMIN">     6</i>
    <i name="ENINI">    500.00000000</i>
    <separator name="electronic convergence detail" >
     <i type="logical" name="LDIAG"> T  </i>
     <i type="logical" name="LSUBROT"> F  </i>
     <i name="WEIMIN">      0.00100000</i>
     <i name="EBREAK">      0.00000001</i>
     <i name="DEPER">      0.30000000</i>
     <i type="int" name="NRMM">     4</i>
     <i name="TIME">      0.40000000</i>
    </separator>
   </separator>
   <separator name="electronic mixer" >
    <i name="AMIX">      0.40000000</i>
    <i name="BMIX">      1.00000000</i>
    <i name="AMIN">      0.10000000</i>
    <i name="AMIX_MAG">      1.60000000</i>
    <i name="BMIX_MAG">      1.00000000</i>
    <separator name="electronic mixer details" >
     <i type="int" name="IMIX">     4</i>
     <i type="logical" name="MIXFIRST"> F  </i>
     <i type="int" name="MAXMIX">   -45</i>
     <i name="WC">    100.00000000</i>
     <i type="int" name="INIMIX">     1</i>
     <i type="int" name="MIXPRE">     1</i>
     <i type="int" name="MREMOVE">     5</i>
    </separator>
   </separator>
   <separator name="electronic dipolcorrection" >
    <i type="logical" name="LDIPOL"> F  </i>
    <i type="logical" name="LMONO"> F  </i>
    <i type="int" name="IDIPOL">     0</i>
    <i name="EPSILON">      1.00000000</i>
    <v name="DIPOL">   -100.00000000   -100.00000000   -100.00000000</v>
    <i name="EFIELD">      0.00000000</i>
   </separator>
  </separator>
  <separator name="grids" >
   <i type="int" name="NGX">    56</i>
   <i type="int" name="NGY">    56</i>
   <i type="int" name="NGZ">   108</i>
   <i type="int" name="NGXF">   112</i>
   <i type="int" name="NGYF">   112</i>
   <i type="int" name="NGZF">   216</i>
   <i type="logical" name="ADDGRID"> F  </i>
  </separator>
  <separator name="ionic" >
   <i type="int" name="NSW">   649</i>
   <i type="int" name="IBRION">     5</i>
   <i type="int" name="MDALGO">     0</i>
   <i type="int" name="ISIF">     2</i>
   <i name="PSTRESS">      0.00000000</i>
   <i name="EDIFFG">      0.00010000</i>
   <i type="int" name="NFREE">     1</i>
   <i name="POTIM">      0.01500000</i>
   <i name="SMASS">     -3.00000000</i>
   <i name="SCALEE">      1.00000000</i>
  </separator>
  <separator name="ionic md" >
   <i name="TEBEG">      0.00010000</i>
   <i name="TEEND">      0.00010000</i>
   <i type="int" name="NBLOCK">     1</i>
   <i type="int" name="KBLOCK">   649</i>
   <i type="int" name="NPACO">   256</i>
   <i name="APACO">     10.00000000</i>
  </separator>
  <separator name="symmetry" >
   <i type="int" name="ISYM">     0</i>
   <i name="SYMPREC">      0.00001000</i>
  </separator>
  <separator name="dos" >
   <i type="int" name="LORBIT">     0</i>
   <v name="RWIGS">     -1.00000000     -1.00000000     -1.00000000</v>
   <i type="int" name="NEDOS">   301</i>
   <i name="EMIN">     10.00000000</i>
   <i name="EMAX">    -10.00000000</i>
   <i name="EFERMI">      0.00000000</i>
  </separator>
  <separator name="writing" >
   <i type="int" name="NWRITE">     2</i>
   <i type="logical" name="LWAVE"> F  </i>
   <i type="logical" name="LDOWNSAMPLE"> F  </i>
   <i type="logical" name="LCHARG"> F  </i>
   <i type="logical" name="LPARD"> F  </i>
   <i type="logical" name="LVTOT"> F  </i>
   <i type="logical" name="LVHAR"> F  </i>
   <i type="logical" name="LELF"> F  </i>
   <i type="logical" name="LOPTICS"> F  </i>
   <v name="STM">      0.00000000      0.00000000      0.00000000      0.00000000      0.00000000      0.00000000      0.00000000</v>
  </separator>
  <separator name="performance" >
   <i type="int" name="NPAR">     4</i>
   <i type="int" name="NSIM">     4</i>
   <i type="int" name="NBLK">    -1</i>
   <i type="logical" name="LPLANE"> T  </i>
   <i type="logical" name="LSCALAPACK"> T  </i>
   <i type="logical" name="LSCAAWARE"> F  </i>
   <i type="logical" name="LSCALU"> F  </i>
   <i type="logical" name="LASYNC"> F  </i>
   <i type="logical" name="LORBITALREAL"> F  </i>
  </separator>
  <separator name="miscellaneous" >
   <i type="int" name="IDIOT">     3</i>
   <i type="int" name="PHON_NSTRUCT">    -1</i>
   <i type="logical" name="LMUSIC"> F  </i>
   <v name="POMASS">     63.54600000     14.00100000      1.00000000</v>
   <v name="DARWINR">      0.00000000      0.00000000      0.00000000</v>
   <v name="DARWINV">      1.00000000      1.00000000      1.00000000</v>
   <i type="logical" name="LCORR"> T  </i>
  </separator>
  <i type="logical" name="GGA_COMPAT"> T  </i>
  <i type="logical" name="LBERRY"> F  </i>
  <i type="int" name="ICORELEVEL">     0</i>
  <i type="logical" name="LDAU"> F  </i>
  <i type="int" name="I_CONSTRAINED_M">     0</i>
  <separator name="electronic exchange-correlation" >
   <i type="string" name="GGA">--</i>
   <i type="int" name="VOSKOWN">     0</i>
   <i type="logical" name="LHFCALC"> F  </i>
   <i type="string" name="PRECFOCK"></i>
   <i type="logical" name="LSYMGRAD"> F  </i>
   <i type="logical" name="LHFONE"> F  </i>
   <i type="logical" name="LRHFCALC"> F  </i>
   <i type="logical" name="LTHOMAS"> F  </i>
   <i type="logical" name="LMODELHF"> F  </i>
   <i type="logical" name="LFOCKACE"> F  </i>
   <i name="ENCUT4O">     -1.00000000</i>
   <i type="int" name="EXXOEP">     0</i>
   <i type="int" name="FOURORBIT">     0</i>
   <i name="AEXX">      0.00000000</i>
   <i name="HFALPHA">      0.00000000</i>
   <i name="MCALPHA">      0.00000000</i>
   <i name="ALDAX">      1.00000000</i>
   <i name="AGGAX">      1.00000000</i>
   <i name="ALDAC">      1.00000000</i>
   <i name="AGGAC">      1.00000000</i>
   <i type="int" name="NKREDX">     1</i>
   <i type="int" name="NKREDY">     1</i>
   <i type="int" name="NKREDZ">     1</i>
   <i type="logical" name="SHIFTRED"> F  </i>
   <i type="logical" name="ODDONLY"> F  </i>
   <i type="logical" name="EVENONLY"> F  </i>
   <i type="int" name="LMAXFOCK">     0</i>
   <i type="int" name="NMAXFOCKAE">     0</i>
   <i type="logical" name="LFOCKAEDFT"> F  </i>
   <i name="HFSCREEN">      0.00000000</i>
   <i name="HFSCREENC">      0.00000000</i>
   <i type="int" name="NBANDSGWLOW">     0</i>
  </separator>
  <separator name="vdW DFT" >
   <i type="logical" name="LUSE_VDW"> F  </i>
   <i type="int" name="IVDW_NL">     1</i>
   <i type="logical" name="LSPIN_VDW"> F  </i>
   <i name="Zab_VDW">     -0.84910000</i>
   <i name="PARAM1">      0.12340000</i>
   <i name="PARAM2">      1.00000000</i>
   <i name="PARAM3">      0.00000000</i>
  </separator>
  <separator name="model GW" >
   <i type="int" name="MODEL_GW">     0</i>
   <i name="MODEL_EPS0">     19.39086816</i>
   <i name="MODEL_ALPHA">      1.00000000</i>
  </separator>
  <separator name="linear response parameters" >
   <i type="logical" name="LEPSILON"> F  </i>
   <i type="logical" name="LRPA"> F  </i>
   <i type="logical" name="LNABLA"> F  </i>
   <i type="logical" name="LVEL"> F  </i>
   <i name="CSHIFT">      0.10000000</i>
   <i name="OMEGAMAX">     -1.00000000</i>
   <i name="DEG_THRESHOLD">      0.00200000</i>
   <i name="RTIME">     -0.10000000</i>
   <i name="WPLASMAI">      0.00000000</i>
   <v name="DFIELD">      0.00000000      0.00000000      0.00000000</v>
   <v name="WPLASMA">      0.00000000      0.00000000      0.00000000      0.00000000      0.00000000      0.00000000      0.00000000      0.00000000      0.00000000</v>
  </separator>
  <separator name="orbital magnetization" >
   <i type="logical" name="NUCIND"> F  </i>
   <v name="MAGPOS">      0.00000000      0.00000000      0.00000000</v>
   <i type="logical" name="LNICSALL"> T  </i>
   <i type="logical" name="ORBITALMAG"> F  </i>
   <i type="logical" name="LMAGBLOCH"> F  </i>
   <i type="logical" name="LCHIMAG"> F  </i>
   <i type="logical" name="LGAUGE"> T  </i>
   <i type="int" name="MAGATOM">     0</i>
   <v name="MAGDIPOL">      0.00000000      0.00000000      0.00000000</v>
   <v name="AVECCONST">      0.00000000      0.00000000      0.00000000</v>
  </separator>
  <separator name="response functions" >
   <i type="logical" name="LALL_IN_ONE"> F  </i>
   <i type="int" name="IALL_IN_ONE">    -1</i>
   <i type="int" name="NBANDS_WAVE">    -1</i>
   <i type="logical" name="LFINITE_TEMPERATURE"> F  </i>
   <i type="logical" name="LADDER"> F  </i>
   <i type="logical" name="LRPAFORCE"> F  </i>
   <i type="logical" name="LFXC"> F  </i>
   <i type="logical" name="LHARTREE"> T  </i>
   <i type="int" name="IBSE">     0</i>
   <v type="int" name="KPOINT">    -1     0     0     0</v>
   <i type="logical" name="LTCTC"> F  </i>
   <i type="logical" name="LTCTE"> F  </i>
   <i type="logical" name="LTETE"> F  </i>
   <i type="logical" name="LTRIPLET"> F  </i>
   <i type="logical" name="LFXCEPS"> F  </i>
   <i type="logical" name="LFXHEG"> F  </i>
   <i type="int" name="NATURALO">     2</i>
   <i type="logical" name="LHOLEGF"> F  </i>
   <i type="logical" name="L2ORDER"> F  </i>
   <i type="logical" name="LDMP1"> F  </i>
   <i type="logical" name="LMP2LT"> F  </i>
   <i type="logical" name="LSMP2LT"> F  </i>
   <i type="logical" name="LGWLF"> F  </i>
   <i name="ENCUTGW">     -1.60000002</i>
   <i name="ENCUTGWSOFT">     -1.60000002</i>
   <i name="ENCUTLF">     -1.00000000</i>
   <i type="logical" name="LESF_SPLINES"> F  </i>
   <i type="int" name="LMAXMP2">    -1</i>
   <i name="SCISSOR">      0.00000000</i>
   <i type="int" name="NOMEGA">     0</i>
   <i type="int" name="NOMEGAR">     0</i>
   <i type="int" name="NBANDSGW">    -1</i>
   <i type="int" name="NBANDSO">    -1</i>
   <i type="int" name="NBANDSV">    -1</i>
   <i type="int" name="NELMGW">     1</i>
   <i type="int" name="NELMHF">     1</i>
   <i type="int" name="DIM">     3</i>
   <i type="int" name="IESPILON">     4</i>
   <i type="int" name="ANTIRES">     0</i>
   <i name="OMEGAMAX">    -30.00000000</i>
   <i name="OMEGAMIN">    -30.00000000</i>
   <i name="OMEGATL">   -200.00000000</i>
   <i type="int" name="OMEGAGRID">     0</i>
   <i name="CSHIFT">     -0.10000000</i>
   <i type="logical" name="LSELFENERGY"> F  </i>
   <i type="logical" name="LSPECTRAL"> F  </i>
   <i type="logical" name="LSPECTRALGW"> F  </i>
   <i type="logical" name="LSINGLES"> F  </i>
   <i type="logical" name="LFERMIGW"> F  </i>
   <i type="logical" name="ODDONLYGW"> F  </i>
   <i type="logical" name="EVENONLYGW"> F  </i>
   <i type="int" name="NKREDLFX">     1</i>
   <i type="int" name="NKREDLFY">     1</i>
   <i type="int" name="NKREDLFZ">     1</i>
   <i type="int" name="MAXMEM">  2800</i>
   <i type="int" name="TELESCOPE">     0</i>
   <i type="int" name="NTAUPAR">    -1</i>
   <i type="int" name="NOMEGAPAR">    -1</i>
   <i name="DAMP_NEWTON">      0.80000001</i>
   <i name="LAMBDA">      1.00000000</i>
  </separator>
  <separator name="External order field" >
   <i name="OFIELD_KAPPA">      0.00000000</i>
   <v name="OFIELD_K">      0.00000000      0.00000000      0.00000000</v>
   <i name="OFIELD_Q6_NEAR">      0.00000000</i>
   <i name="OFIELD_Q6_FAR">      0.00000000</i>
   <i name="OFIELD_A">      0.00000000</i>
  </separator>
  <separator name="optional k-points parameters" >
   <i type="int" name="KPOINTS_OPT_MODE">     1</i>
   <i type="logical" name="LKPOINTS_OPT"> F  </i>
  </separator>
  <separator name="solvation model" >
   <i type="logical" name="LSOL"> F  </i>
  </separator>
 </parameters>
 <atominfo>
  <atoms>      51 </atoms>
  <types>       3 </types>
  <array name="atoms" >
   <dimension dim="1">ion</dimension>
   <field type="string">element</field>
   <field type="int">atomtype</field>
   <set>
    <rc><c>Cu</c><c>   1</c></rc>
    <rc><c>Cu</c><c>   1</c></rc>
    <rc><c>Cu</c><c>   1</c></rc>
    <rc><c>Cu</c><c>   1</c></rc>
    <rc><c>Cu</c><c>   1</c></rc>
    <rc><c>Cu</c><c>   1</c></rc>
    <rc><c>Cu</c><c>   1</c></rc>
    <rc><c>Cu</c><c>   1</c></rc>
    <rc><c>Cu</c><c>   1</c></rc>
    <rc><c>Cu</c><c>   1</c></rc>
    <rc><c>Cu</c><c>   1</c></rc>
    <rc><c>Cu</c><c>   1</c></rc>
    <rc><c>Cu</c><c>   1</c></rc>
    <rc><c>Cu</c><c>   1</c></rc>
    <rc><c>Cu</c><c>   1</c></rc>
    <rc><c>Cu</c><c>   1</c></rc>
    <rc><c>Cu</c><c>   1</c></rc>
    <rc><c>Cu</c><c>   1</c></rc>
    <rc><c>Cu</c><c>   1</c></rc>
    <rc><c>Cu</c><c>   1</c></rc>
    <rc><c>Cu</c><c>   1</c></rc>
    <rc><c>Cu</c><c>   1</c></rc>
    <rc><c>Cu</c><c>   1</c></rc>
    <rc><c>Cu</c><c>   1</c></rc>
    <rc><c>Cu</c><c>   1</c></rc>
    <rc><c>Cu</c><c>   1</c></rc>
    <rc><c>Cu</c><c>   1</c></rc>
    <rc><c>Cu</c><c>   1</c></rc>
    <rc><c>Cu</c><c>   1</c></rc>
    <rc><c>Cu</c><c>   1</c></rc>
    <rc><c>Cu</c><c>   1</c></rc>
    <rc><c>Cu</c><c>   1</c></rc>
    <rc><c>Cu</c><c>   1</c></rc>
    <rc><c>Cu</c><c>   1</c></rc>
    <rc><c>Cu</c><c>   1</c></rc>
    <rc><c>Cu</c><c>   1</c></rc>
    <rc><c>Cu</c><c>   1</c></rc>
    <rc><c>Cu</c><c>   1</c></rc>
    <rc><c>Cu</c><c>   1</c></rc>
    <rc><c>Cu</c><c>   1</c></rc>
    <rc><c>Cu</c><c>   1</c></rc>
    <rc><c>Cu</c><c>   1</c></rc>
    <rc><c>Cu</c><c>   1</c></rc>
    <rc><c>Cu</c><c>   1</c></rc>
    <rc><c>Cu</c><c>   1</c></rc>
    <rc><c>Cu</c><c>   1</c></rc>
    <rc><c>Cu</c><c>   1</c></rc>
    <rc><c>Cu</c><c>   1</c></rc>
    <rc><c>N </c><c>   2</c></rc>
    <rc><c>H </c><c>   3</c></rc>
    <rc><c>H </c><c>   3</c></rc>
   </set>
  </array>
  <array name="atomtypes" >
   <dimension dim="1">type</dimension>
   <field type="int">atomspertype</field>
   <field type="string">element</field>
   <field>mass</field>
   <field>valence</field>
   <field type="string">pseudopotential</field>
   <set>
    <rc><c>  48</c><c>Cu</c><c>     63.54600000</c><c>     11.00000000</c><c>  PAW_PBE Cu 22Jun2005                  </c></rc>
    <rc><c>   1</c><c>N </c><c>     14.00100000</c><c>      5.00000000</c><c>  PAW_PBE N 08Apr2002                   </c></rc>
    <rc><c>   2</c><c>H </c><c>      1.00000000</c><c>      1.00000000</c><c>  PAW_PBE H 15Jun2001                   </c></rc>
   </set>
  </array>
 </atominfo>
 <structure name="initialpos" >
  <crystal>
   <varray name="basis" >
    <v>      10.11850195       0.00000000       0.00000000 </v>
    <v>      -5.05925097       8.76287974       0.00000000 </v>
    <v>       0.00000000       0.00000000      18.58887505 </v>
   </varray>
   <i name="volume">   1648.22379336 </i>
   <varray name="rec_basis" >
    <v>       0.09882886       0.05705887      -0.00000000 </v>
    <v>       0.00000000       0.11411774      -0.00000000 </v>
    <v>       0.00000000       0.00000000       0.05379562 </v>
   </varray>
  </crystal>
  <varray name="positions" >
   <v>       0.99904304       0.00090621       0.61211041 </v>
   <v>       0.00015586       0.25029098       0.61424211 </v>
   <v>       0.99785550       0.49818244       0.61332683 </v>
   <v>       0.99577386       0.74883338       0.61118244 </v>
   <v>       0.24461825       0.00349658       0.61785775 </v>
   <v>       0.25038876       0.25251671       0.61203141 </v>
   <v>       0.25028306       0.49816929       0.61333556 </v>
   <v>       0.24714372       0.74430019       0.60079812 </v>
   <v>       0.50889131       0.00349596       0.61783904 </v>
   <v>       0.50343632       0.25687246       0.61055064 </v>
   <v>       0.50086962       0.50136773       0.61349391 </v>
   <v>       0.50303909       0.74882950       0.61118529 </v>
   <v>       0.75186545       0.00092911       0.61210956 </v>
   <v>       0.75212443       0.25252145       0.61203018 </v>
   <v>       0.75047971       0.50135286       0.61349339 </v>
   <v>       0.75038618       0.75071074       0.61329459 </v>
   <v>       0.08333834       0.16669679       0.38889480 </v>
   <v>       0.08329087       0.41658144       0.38881589 </v>
   <v>       0.08324173       0.66661886       0.38874480 </v>
   <v>       0.08328270       0.91671784       0.38880154 </v>
   <v>       0.33333537       0.16668690       0.38887502 </v>
   <v>       0.33334319       0.41662617       0.38884724 </v>
   <v>       0.33337781       0.66661929       0.38874475 </v>
   <v>       0.33337641       0.91675291       0.38874120 </v>
   <v>       0.58335169       0.16668593       0.38887505 </v>
   <v>       0.58336653       0.41667220       0.38889273 </v>
   <v>       0.58337471       0.66665318       0.38883971 </v>
   <v>       0.58343639       0.91671784       0.38880153 </v>
   <v>       0.83335869       0.16669603       0.38889492 </v>
   <v>       0.83328481       0.41662614       0.38884732 </v>
   <v>       0.83327927       0.66665341       0.38883985 </v>
   <v>       0.83336484       0.91667708       0.38887599 </v>
   <v>       0.16663061       0.08335862       0.49997106 </v>
   <v>       0.16663104       0.33320961       0.49993484 </v>
   <v>       0.16617957       0.58235651       0.49922243 </v>
   <v>       0.16616722       0.83380641       0.49920896 </v>
   <v>       0.41681461       0.08362931       0.49981018 </v>
   <v>       0.41664571       0.33340356       0.50001824 </v>
   <v>       0.41682090       0.58318171       0.49982316 </v>
   <v>       0.41763983       0.83380691       0.49920845 </v>
   <v>       0.66672856       0.08335851       0.49997100 </v>
   <v>       0.66675827       0.33340352       0.50001867 </v>
   <v>       0.66664242       0.58329966       0.49995707 </v>
   <v>       0.66688149       0.83338414       0.49988368 </v>
   <v>       0.91672152       0.08343114       0.50002006 </v>
   <v>       0.91657885       0.33320917       0.49993500 </v>
   <v>       0.91636061       0.58318032       0.49982338 </v>
   <v>       0.91650190       0.83338303       0.49988432 </v>
   <v>       0.35847512       0.96690304       0.68982277 </v>
   <v>       0.39203977       0.03392248       0.73480591 </v>
   <v>       0.24171629       0.73359511       0.72654997 </v>
  </varray>
 </structure>
 <calculation>
  <scstep>
   <time name="dav">    1.94    2.02</time>
   <time name="total">    1.97    2.07</time>
   <energy>
    <i name="alphaZ">   1044.42981019 </i>
    <i name="ewald"> 153167.80438941 </i>
    <i name="hartreedc">-217348.55329917 </i>
    <i name="XCdc">   2209.72928957 </i>
    <i name="pawpsdc">  59163.12046064 </i>
    <i name="pawaedc"> -64244.73594820 </i>
    <i name="eentropy">     -0.00160564 </i>
    <i name="bandstr">   4055.21546887 </i>
    <i name="atom">  67056.38188117 </i>
    <i name="e_fr_energy">   5103.39044684 </i>
    <i name="e_wo_entrp">   5103.39205247 </i>
    <i name="e_0_energy">   5103.39098205 </i>
   </energy>
  </scstep>
  <scstep>
   <time name="dav">    1.85    1.87</time>
   <time name="total">    1.85    1.87</time>
   <energy>
    <i name="e_fr_energy">    566.43606648 </i>
    <i name="e_wo_entrp">    566.44691182 </i>
    <i name="e_0_energy">    566.43968159 </i>
   </energy>
  </scstep>
  <scstep>
   <time name="dav">    1.88    1.89</time>
   <time name="total">    1.88    1.89</time>
   <energy>
    <i name="e_fr_energy">   -149.53896070 </i>
    <i name="e_wo_entrp">   -149.54545079 </i>
    <i name="e_0_energy">   -149.54112406 </i>
   </energy>
  </scstep>
  <scstep>
   <time name="dav">    2.42    2.45</time>
   <time name="total">    2.42    2.45</time>
   <energy>
    <i name="e_fr_energy">   -215.69633331 </i>
    <i name="e_wo_entrp">   -215.67565573 </i>
    <i name="e_0_energy">   -215.68944079 </i>
   </energy>
  </scstep>
  <scstep>
   <time name="dav">    2.54    2.56</time>
   <time name="total">    2.60    2.63</time>
   <energy>
    <i name="e_fr_energy">   -220.19704544 </i>
    <i name="e_wo_entrp">   -220.19018484 </i>
    <i name="e_0_energy">   -220.19475857 </i>
   </energy>
  </scstep>
  <scstep>
   <time name="diag">    0.32    0.32</time>
   <time name="diis">    0.72    0.72</time>
   <time name="orth">    0.09    0.09</time>
   <time name="total">    1.20    1.21</time>
   <energy>
    <i name="e_fr_energy">   -201.20956945 </i>
    <i name="e_wo_entrp">   -201.21413463 </i>
    <i name="e_0_energy">   -201.21109118 </i>
   </energy>
  </scstep>
  <scstep>
   <time name="diag">    0.31    0.32</time>
   <time name="diis">    0.71    0.72</time>
   <time name="orth">    0.09    0.09</time>
   <time name="total">    1.19    1.19</time>
   <energy>
    <i name="e_fr_energy">   -178.20949412 </i>
    <i name="e_wo_entrp">   -178.15125164 </i>
    <i name="e_0_energy">   -178.19007996 </i>
   </energy>
  </scstep>
  <scstep>
   <time name="diag">    0.31    0.31</time>
   <time name="diis">    0.76    0.76</time>
   <time name="orth">    0.09    0.09</time>
   <time name="total">    1.22    1.23</time>
   <energy>
    <i name="e_fr_energy">   -176.92347558 </i>
    <i name="e_wo_entrp">   -176.85181565 </i>
    <i name="e_0_energy">   -176.89958894 </i>
   </energy>
  </scstep>
  <scstep>
   <time name="diag">    0.31    0.31</time>
   <time name="diis">    0.72    0.72</time>
   <time name="orth">    0.09    0.09</time>
   <time name="total">    1.18    1.19</time>
   <energy>
    <i name="e_fr_energy">   -176.57451175 </i>
    <i name="e_wo_entrp">   -176.51110359 </i>
    <i name="e_0_energy">   -176.55337570 </i>
   </energy>
  </scstep>
  <scstep>
   <time name="diag">    0.31    0.31</time>
   <time name="diis">    0.77    0.77</time>
   <time name="orth">    0.09    0.09</time>
   <time name="total">    1.23    1.24</time>
   <energy>
    <i name="e_fr_energy">   -176.46493315 </i>
    <i name="e_wo_entrp">   -176.39340674 </i>
    <i name="e_0_energy">   -176.44109101 </i>
   </energy>
  </scstep>
  <scstep>
   <time name="diag">    0.31    0.31</time>
   <time name="diis">    0.73    0.73</time>
   <time name="orth">    0.09    0.09</time>
   <time name="total">    1.19    1.20</time>
   <energy>
    <i name="e_fr_energy">   -176.43253568 </i>
    <i name="e_wo_entrp">   -176.36911947 </i>
    <i name="e_0_energy">   -176.41139694 </i>
   </energy>
  </scstep>
  <scstep>
   <time name="diag">    0.31    0.31</time>
   <time name="diis">    0.72    0.73</time>
   <time name="orth">    0.09    0.09</time>
   <time name="total">    1.19    1.19</time>
   <energy>
    <i name="e_fr_energy">   -176.40688988 </i>
    <i name="e_wo_entrp">   -176.33960288 </i>
    <i name="e_0_energy">   -176.38446088 </i>
   </energy>
  </scstep>
  <scstep>
   <time name="diag">    0.31    0.31</time>
   <time name="diis">    0.78    0.78</time>
   <time name="orth">    0.09    0.09</time>
   <time name="total">    1.24    1.25</time>
   <energy>
    <i name="e_fr_energy">   -176.39671317 </i>
    <i name="e_wo_entrp">   -176.33027750 </i>
    <i name="e_0_energy">   -176.37456794 </i>
   </energy>
  </scstep>
  <scstep>
   <time name="diag">    0.31    0.31</time>
   <time name="diis">    0.83    0.83</time>
   <time name="orth">    0.09    0.09</time>
   <time name="total">    1.29    1.30</time>
   <energy>
    <i name="e_fr_energy">   -176.39459220 </i>
    <i name="e_wo_entrp">   -176.32708111 </i>
    <i name="e_0_energy">   -176.37208851 </i>
   </energy>
  </scstep>
  <scstep>
   <time name="diag">    0.31    0.31</time>
   <time name="diis">    0.73    0.73</time>
   <time name="orth">    0.09    0.09</time>
   <time name="total">    1.19    1.20</time>
   <energy>
    <i name="e_fr_energy">   -176.39215663 </i>
    <i name="e_wo_entrp">   -176.32519094 </i>
    <i name="e_0_energy">   -176.36983474 </i>
   </energy>
  </scstep>
  <scstep>
   <time name="diag">    0.31    0.31</time>
   <time name="diis">    0.73    0.73</time>
   <time name="orth">    0.09    0.09</time>
   <time name="total">    1.19    1.20</time>
   <energy>
    <i name="e_fr_energy">   -176.39021804 </i>
    <i name="e_wo_entrp">   -176.32367720 </i>
    <i name="e_0_energy">   -176.36803776 </i>
   </energy>
  </scstep>
  <scstep>
   <time name="diag">    0.31    0.31</time>
   <time name="diis">    0.75    0.75</time>
   <time name="orth">    0.09    0.09</time>
   <time name="total">    1.21    1.22</time>
   <energy>
    <i name="e_fr_energy">   -176.39027117 </i>
    <i name="e_wo_entrp">   -176.32376980 </i>
    <i name="e_0_energy">   -176.36810405 </i>
   </energy>
  </scstep>
  <scstep>
   <time name="diag">    0.31    0.31</time>
   <time name="diis">    0.72    0.72</time>
   <time name="orth">    0.09    0.09</time>
   <time name="total">    1.20    1.21</time>
   <energy>
    <i name="e_fr_energy">   -176.39069114 </i>
    <i name="e_wo_entrp">   -176.32416591 </i>
    <i name="e_0_energy">   -176.36851606 </i>
   </energy>
  </scstep>
  <scstep>
   <time name="diag">    0.31    0.31</time>
   <time name="diis">    0.74    0.75</time>
   <time name="orth">    0.09    0.09</time>
   <time name="total">    1.20    1.21</time>
   <energy>
    <i name="e_fr_energy">   -176.39156613 </i>
    <i name="e_wo_entrp">   -176.32523786 </i>
    <i name="e_0_energy">   -176.36945671 </i>
   </energy>
  </scstep>
  <scstep>
   <time name="diag">    0.31    0.31</time>
   <time name="diis">    0.71    0.71</time>
   <time name="orth">    0.09    0.09</time>
   <time name="total">    1.17    1.19</time>
   <energy>
    <i name="e_fr_energy">   -176.39189910 </i>
    <i name="e_wo_entrp">   -176.32562412 </i>
    <i name="e_0_energy">   -176.36980744 </i>
   </energy>
  </scstep>
  <scstep>
   <time name="diag">    0.31    0.31</time>
   <time name="diis">    0.72    0.72</time>
   <time name="orth">    0.09    0.09</time>
   <time name="total">    1.18    1.19</time>
   <energy>
    <i name="e_fr_energy">   -176.39235667 </i>
    <i name="e_wo_entrp">   -176.32604305 </i>
    <i name="e_0_energy">   -176.37025213 </i>
   </energy>
  </scstep>
  <scstep>
   <time name="diag">    0.31    0.31</time>
   <time name="diis">    0.64    0.64</time>
   <time name="orth">    0.09    0.09</time>
   <time name="total">    1.10    1.10</time>
   <energy>
    <i name="e_fr_energy">   -176.39285728 </i>
    <i name="e_wo_entrp">   -176.32653414 </i>
    <i name="e_0_energy">   -176.37074957 </i>
   </energy>
  </scstep>
  <scstep>
   <time name="diag">    0.31    0.31</time>
   <time name="diis">    0.57    0.57</time>
   <time name="orth">    0.09    0.09</time>
   <time name="total">    1.03    1.03</time>
   <energy>
    <i name="e_fr_energy">   -176.39318335 </i>
    <i name="e_wo_entrp">   -176.32687258 </i>
    <i name="e_0_energy">   -176.37107976 </i>
   </energy>
  </scstep>
  <scstep>
   <time name="diag">    0.31    0.31</time>
   <time name="diis">    0.47    0.47</time>
   <time name="orth">    0.09    0.09</time>
   <time name="total">    0.93    0.93</time>
   <energy>
    <i name="e_fr_energy">   -176.39341140 </i>
    <i name="e_wo_entrp">   -176.32710225 </i>
    <i name="e_0_energy">   -176.37130835 </i>
   </energy>
  </scstep>
  <scstep>
   <time name="diag">    0.31    0.31</time>
   <time name="diis">    0.46    0.46</time>
   <time name="orth">    0.09    0.09</time>
   <time name="total">    0.92    0.92</time>
   <energy>
    <i name="e_fr_energy">   -176.39362311 </i>
    <i name="e_wo_entrp">   -176.32731996 </i>
    <i name="e_0_energy">   -176.37152206 </i>
   </energy>
  </scstep>
  <scstep>
   <time name="diag">    0.31    0.31</time>
   <time name="diis">    0.46    0.46</time>
   <time name="orth">    0.09    0.09</time>
   <time name="total">    0.92    0.92</time>
   <energy>
    <i name="e_fr_energy">   -176.39386182 </i>
    <i name="e_wo_entrp">   -176.32755549 </i>
    <i name="e_0_energy">   -176.37175971 </i>
   </energy>
  </scstep>
  <scstep>
   <time name="diag">    0.31    0.31</time>
   <time name="diis">    0.45    0.45</time>
   <time name="orth">    0.09    0.09</time>
   <time name="total">    0.91    0.93</time>
   <energy>
    <i name="e_fr_energy">   -176.39390219 </i>
    <i name="e_wo_entrp">   -176.32759453 </i>
    <i name="e_0_energy">   -176.37179964 </i>
   </energy>
  </scstep>
  <scstep>
   <time name="diag">    0.31    0.31</time>
   <time name="diis">    0.45    0.45</time>
   <time name="orth">    0.09    0.09</time>
   <time name="total">    0.91    0.92</time>
   <energy>
    <i name="e_fr_energy">   -176.39394851 </i>
    <i name="e_wo_entrp">   -176.32764227 </i>
    <i name="e_0_energy">   -176.37184643 </i>
   </energy>
  </scstep>
  <scstep>
   <time name="diag">    0.31    0.31</time>
   <time name="diis">    0.44    0.44</time>
   <time name="orth">    0.09    0.09</time>
   <time name="total">    0.90    0.91</time>
   <energy>
    <i name="e_fr_energy">   -176.39396659 </i>
    <i name="e_wo_entrp">   -176.32766115 </i>
    <i name="e_0_energy">   -176.37186478 </i>
   </energy>
  </scstep>
  <scstep>
   <time name="diag">    0.31    0.31</time>
   <time name="diis">    0.39    0.40</time>
   <time name="orth">    0.09    0.09</time>
   <time name="total">    0.80    0.81</time>
   <energy>
    <i name="alphaZ">   1044.42981019 </i>
    <i name="ewald"> 153167.80438941 </i>
    <i name="hartreedc">-216627.88686930 </i>
    <i name="XCdc">   2161.85849660 </i>
    <i name="pawpsdc">  63272.16677794 </i>
    <i name="pawaedc"> -68447.12182086 </i>
    <i name="eentropy">     -0.06630484 </i>
    <i name="bandstr">  -1803.96032960 </i>
    <i name="atom">  67056.38188117 </i>
    <i name="e_fr_energy">   -176.39396929 </i>
    <i name="e_wo_entrp">   -176.32766445 </i>
    <i name="e_0_energy">   -176.37186768 </i>
   </energy>
  </scstep>
  <structure>
   <crystal>
    <varray name="basis" >
     <v>      10.11850195       0.00000000       0.00000000 </v>
     <v>      -5.05925097       8.76287974       0.00000000 </v>
     <v>       0.00000000       0.00000000      18.58887505 </v>
    </varray>
    <i name="volume">   1648.22379336 </i>
    <varray name="rec_basis" >
     <v>       0.09882886       0.05705887      -0.00000000 </v>
     <v>       0.00000000       0.11411774      -0.00000000 </v>
     <v>       0.00000000       0.00000000       0.05379562 </v>
    </varray>
   </crystal>
   <varray name="positions" >
    <v>       0.99904304       0.00090621       0.61211041 </v>
    <v>       0.00015586       0.25029098       0.61424211 </v>
    <v>       0.99785550       0.49818244       0.61332683 </v>
    <v>       0.99577386       0.74883338       0.61118244 </v>
    <v>       0.24461825       0.00349658       0.61785775 </v>
    <v>       0.25038876       0.25251671       0.61203141 </v>
    <v>       0.25028306       0.49816929       0.61333556 </v>
    <v>       0.24714372       0.74430019       0.60079812 </v>
    <v>       0.50889131       0.00349596       0.61783904 </v>
    <v>       0.50343632       0.25687246       0.61055064 </v>
    <v>       0.50086962       0.50136773       0.61349391 </v>
    <v>       0.50303909       0.74882950       0.61118529 </v>
    <v>       0.75186545       0.00092911       0.61210956 </v>
    <v>       0.75212443       0.25252145       0.61203018 </v>
    <v>       0.75047971       0.50135286       0.61349339 </v>
    <v>       0.75038618       0.75071074       0.61329459 </v>
    <v>       0.08333834       0.16669679       0.38889480 </v>
    <v>       0.08329087       0.41658144       0.38881589 </v>
    <v>       0.08324173       0.66661886       0.38874480 </v>
    <v>       0.08328270       0.91671784       0.38880154 </v>
    <v>       0.33333537       0.16668690       0.38887502 </v>
    <v>       0.33334319       0.41662617       0.38884724 </v>
    <v>       0.33337781       0.66661929       0.38874475 </v>
    <v>       0.33337641       0.91675291       0.38874120 </v>
    <v>       0.58335169       0.16668593       0.38887505 </v>
    <v>       0.58336653       0.41667220       0.38889273 </v>
    <v>       0.58337471       0.66665318       0.38883971 </v>
    <v>       0.58343639       0.91671784       0.38880153 </v>
    <v>       0.83335869       0.16669603       0.38889492 </v>
    <v>       0.83328481       0.41662614       0.38884732 </v>
    <v>       0.83327927       0.66665341       0.38883985 </v>
    <v>       0.83336484       0.91667708       0.38887599 </v>
    <v>       0.16663061       0.08335862       0.49997106 </v>
    <v>       0.16663104       0.33320961       0.49993484 </v>
    <v>       0.16617957       0.58235651       0.49922243 </v>
    <v>       0.16616722       0.83380641       0.49920896 </v>
    <v>       0.41681461       0.08362931       0.49981018 </v>
    <v>       0.41664571       0.33340356       0.50001824 </v>
    <v>       0.41682090       0.58318171       0.49982316 </v>
    <v>       0.41763983       0.83380691       0.49920845 </v>
    <v>       0.66672856       0.08335851       0.49997100 </v>
    <v>       0.66675827       0.33340352       0.50001867 </v>
    <v>       0.66664242       0.58329966       0.49995707 </v>
    <v>       0.66688149       0.83338414       0.49988368 </v>
    <v>       0.91672152       0.08343114       0.50002006 </v>
    <v>       0.91657885       0.33320917       0.49993500 </v>
    <v>       0.91636061       0.58318032       0.49982338 </v>
    <v>       0.91650190       0.83338303       0.49988432 </v>
    <v>       0.35847512       0.96690304       0.68982277 </v>
    <v>       0.39203977       0.03392248       0.73480591 </v>
    <v>       0.24171629       0.73359511       0.72654997 </v>
   </varray>
  </structure>
  <varray name="forces" >
   <v>      -0.03757256      -0.00275257      -0.00140865 </v>
   <v>      -0.00093911      -0.01479124      -0.06830044 </v>
   <v>       0.08000472       0.12324509       0.09529952 </v>
   <v>       0.12171950       0.03171457       0.06109027 </v>
   <v>       0.21194166      -0.00014312       0.17947797 </v>
   <v>      -0.04381222       0.00490237       0.02782008 </v>
   <v>      -0.07845035       0.12384451       0.09446322 </v>
   <v>      -0.00005225       0.05696829       2.22234187 </v>
   <v>      -0.21273212      -0.00084543       0.18007779 </v>
   <v>      -0.00036183      -0.19562032       0.20019821 </v>
   <v>       0.04172650       0.00850941      -0.02433802 </v>
   <v>      -0.11936014       0.03180559       0.06053590 </v>
   <v>       0.03896564      -0.00429197      -0.00159953 </v>
   <v>       0.04448042       0.00465022       0.02793491 </v>
   <v>      -0.04199777       0.00889678      -0.02421554 </v>
   <v>      -0.00290025      -0.01293899       0.02401195 </v>
   <v>      -0.02717003      -0.00070215      -0.16317904 </v>
   <v>       0.00013695      -0.05651565      -0.14712758 </v>
   <v>      -0.01696624      -0.01275845      -0.22359428 </v>
   <v>      -0.00552570       0.03023063      -0.20481641 </v>
   <v>      -0.01466053       0.00209173      -0.15144016 </v>
   <v>       0.00625372       0.01652680      -0.15998017 </v>
   <v>       0.01705138      -0.01279301      -0.22362553 </v>
   <v>       0.00008922      -0.01475276      -0.22158765 </v>
   <v>       0.01497793       0.00160371      -0.15146351 </v>
   <v>      -0.00184134       0.02254245      -0.20043769 </v>
   <v>       0.03773272      -0.03668921      -0.14731814 </v>
   <v>       0.00653359       0.03020757      -0.20478043 </v>
   <v>       0.02753768      -0.00108942      -0.16310031 </v>
   <v>      -0.00502755       0.01648834      -0.16007811 </v>
   <v>      -0.03713430      -0.03667861      -0.14725723 </v>
   <v>      -0.00165778       0.00761264      -0.12043554 </v>
   <v>       0.15206360      -0.09065632       0.25995987 </v>
   <v>      -0.05899382       0.02565408       0.14268483 </v>
   <v>       0.00003247      -0.17906797      -0.20335099 </v>
   <v>      -0.14205647       0.13753923      -0.04533091 </v>
   <v>      -0.00020172      -0.08380840       0.24610288 </v>
   <v>      -0.01269920      -0.01398506       0.08063697 </v>
   <v>      -0.04064239      -0.01586570       0.14402136 </v>
   <v>       0.14182128       0.13719191      -0.04538977 </v>
   <v>      -0.15175434      -0.09059588       0.25928530 </v>
   <v>       0.01258338      -0.01402600       0.08087814 </v>
   <v>       0.00035245       0.03907833       0.19244075 </v>
   <v>       0.01887073       0.02504364       0.13190960 </v>
   <v>      -0.00046871       0.03976330       0.08748855 </v>
   <v>       0.05901069       0.02542959       0.14268191 </v>
   <v>       0.04000856      -0.01575188       0.14351674 </v>
   <v>      -0.01871191       0.02484430       0.13144502 </v>
   <v>      -0.00055137      -0.32984573      -1.17387690 </v>
   <v>      -0.00028097      -0.19245273       0.49793999 </v>
   <v>       0.00062820       0.45303352      -1.33621110 </v>
  </varray>
  <varray name="stress" >
   <v>       2.04197728      -0.01006970       0.00131430 </v>
   <v>      -0.01006947       1.57236351       0.32455230 </v>
   <v>       0.00131431       0.32455233       2.98130398 </v>
  </varray>
  <energy>
   <i name="e_fr_energy">   -176.39396929 </i>
   <i name="e_wo_entrp">   -176.32766445 </i>
   <i name="e_0_energy">   -176.37186768 </i>
  </energy>
  <time name="totalsc">   39.65   40.07</time>
 </calculation>
 <calculation>
  <scstep>
   <time name="dav">    1.90    1.91</time>
   <time name="total">    1.97    1.98</time>
   <energy>
    <i name="alphaZ">   1044.42981019 </i>
    <i name="ewald"> 153168.20060619 </i>
    <i name="hartreedc">-216628.27773147 </i>
    <i name="XCdc">   2161.85947623 </i>
    <i name="pawpsdc">  63272.13347713 </i>
    <i name="pawaedc"> -68447.08904907 </i>
    <i name="eentropy">     -0.06610303 </i>
    <i name="bandstr">  -1803.96293471 </i>
    <i name="atom">  67056.38188117 </i>
    <i name="e_fr_energy">   -176.39056739 </i>
    <i name="e_wo_entrp">   -176.32446435 </i>
    <i name="e_0_energy">   -176.36853304 </i>
   </energy>
  </scstep>
  <scstep>
   <time name="diag">    0.31    0.31</time>
   <time name="diis">    0.72    0.72</time>
   <time name="orth">    0.09    0.09</time>
   <time name="total">    1.17    1.18</time>
   <energy>
    <i name="e_fr_energy">   -176.39192731 </i>
    <i name="e_wo_entrp">   -176.32579745 </i>
    <i name="e_0_energy">   -176.36988403 </i>
   </energy>
  </scstep>
  <scstep>
   <time name="diag">    0.31    0.31</time>
   <time name="diis">    0.98    0.99</time>
   <time name="orth">    0.09    0.09</time>
   <time name="total">    1.44    1.45</time>
   <energy>
    <i name="e_fr_energy">   -176.39262326 </i>
    <i name="e_wo_entrp">   -176.32646009 </i>
    <i name="e_0_energy">   -176.37056887 </i>
   </energy>
  </scstep>
  <scstep>
   <time name="diag">    0.31    0.31</time>
   <time name="diis">    0.74    0.74</time>
   <time name="orth">    0.09    0.09</time>
   <time name="total">    1.20    1.21</time>
   <energy>
    <i name="e_fr_energy">   -176.39260855 </i>
    <i name="e_wo_entrp">   -176.32647591 </i>
    <i name="e_0_energy">   -176.37056433 </i>
   </energy>
  </scstep>
  <scstep>
   <time name="diag">    0.31    0.31</time>
   <time name="diis">    0.60    0.60</time>
   <time name="orth">    0.09    0.09</time>
   <time name="total">    1.06    1.06</time>
   <energy>
    <i name="e_fr_energy">   -176.39258243 </i>
    <i name="e_wo_entrp">   -176.32636946 </i>
    <i name="e_0_energy">   -176.37051144 </i>
   </energy>
  </scstep>
  <scstep>
   <time name="diag">    0.31    0.31</time>
   <time name="diis">    0.75    0.76</time>
   <time name="orth">    0.09    0.09</time>
   <time name="total">    1.22    1.22</time>
   <energy>
    <i name="e_fr_energy">   -176.39255617 </i>
    <i name="e_wo_entrp">   -176.32648871 </i>
    <i name="e_0_energy">   -176.37053369 </i>
   </energy>
  </scstep>
  <scstep>
   <time name="diag">    0.31    0.31</time>
   <time name="diis">    0.55    0.55</time>
   <time name="orth">    0.09    0.09</time>
   <time name="total">    0.96    0.97</time>
   <energy>
    <i name="alphaZ">   1044.42981019 </i>
    <i name="ewald"> 153168.20060619 </i>
    <i name="hartreedc">-216628.28968187 </i>
    <i name="XCdc">   2161.85989247 </i>
    <i name="pawpsdc">  63272.18500096 </i>
    <i name="pawaedc"> -68447.15117820 </i>
    <i name="eentropy">     -0.06614295 </i>
    <i name="bandstr">  -1803.94274280 </i>
    <i name="atom">  67056.38188117 </i>
    <i name="e_fr_energy">   -176.39255484 </i>
    <i name="e_wo_entrp">   -176.32641189 </i>
    <i name="e_0_energy">   -176.37050719 </i>
   </energy>
  </scstep>
  <structure>
   <crystal>
    <varray name="basis" >
     <v>      10.11850195       0.00000000       0.00000000 </v>
     <v>      -5.05925097       8.76287974       0.00000000 </v>
     <v>       0.00000000       0.00000000      18.58887505 </v>
    </varray>
    <i name="volume">   1648.22379336 </i>
    <varray name="rec_basis" >
     <v>       0.09882886       0.05705887      -0.00000000 </v>
     <v>       0.00000000       0.11411774      -0.00000000 </v>
     <v>       0.00000000       0.00000000       0.05379562 </v>
    </varray>
   </crystal>
   <varray name="positions" >
    <v>       1.00052548       0.00090621       0.61211041 </v>
    <v>       0.00015586       0.25029098       0.61424211 </v>
    <v>       0.99785550       0.49818244       0.61332683 </v>
    <v>       0.99577386       0.74883338       0.61118244 </v>
    <v>       0.24461825       0.00349658       0.61785775 </v>
    <v>       0.25038876       0.25251671       0.61203141 </v>
    <v>       0.25028306       0.49816929       0.61333556 </v>
    <v>       0.24714372       0.74430019       0.60079812 </v>
    <v>       0.50889131       0.00349596       0.61783904 </v>
    <v>       0.50343632       0.25687246       0.61055064 </v>
    <v>       0.50086962       0.50136773       0.61349391 </v>
    <v>       0.50303909       0.74882950       0.61118529 </v>
    <v>       0.75186545       0.00092911       0.61210956 </v>
    <v>       0.75212443       0.25252145       0.61203018 </v>
    <v>       0.75047971       0.50135286       0.61349339 </v>
    <v>       0.75038618       0.75071074       0.61329459 </v>
    <v>       0.08333834       0.16669679       0.38889480 </v>
    <v>       0.08329087       0.41658144       0.38881589 </v>
    <v>       0.08324173       0.66661886       0.38874480 </v>
    <v>       0.08328270       0.91671784       0.38880154 </v>
    <v>       0.33333537       0.16668690       0.38887502 </v>
    <v>       0.33334319       0.41662617       0.38884724 </v>
    <v>       0.33337781       0.66661929       0.38874475 </v>
    <v>       0.33337641       0.91675291       0.38874120 </v>
    <v>       0.58335169       0.16668593       0.38887505 </v>
    <v>       0.58336653       0.41667220       0.38889273 </v>
    <v>       0.58337471       0.66665318       0.38883971 </v>
    <v>       0.58343639       0.91671784       0.38880153 </v>
    <v>       0.83335869       0.16669603       0.38889492 </v>
    <v>       0.83328481       0.41662614       0.38884732 </v>
    <v>       0.83327927       0.66665341       0.38883985 </v>
    <v>       0.83336484       0.91667708       0.38887599 </v>
    <v>       0.16663061       0.08335862       0.49997106 </v>
    <v>       0.16663104       0.33320961       0.49993484 </v>
    <v>       0.16617957       0.58235651       0.49922243 </v>
    <v>       0.16616722       0.83380641       0.49920896 </v>
    <v>       0.41681461       0.08362931       0.49981018 </v>
    <v>       0.41664571       0.33340356       0.50001824 </v>
    <v>       0.41682090       0.58318171       0.49982316 </v>
    <v>       0.41763983       0.83380691       0.49920845 </v>
    <v>       0.66672856       0.08335851       0.49997100 </v>
    <v>       0.66675827       0.33340352       0.50001867 </v>
    <v>       0.66664242       0.58329966       0.49995707 </v>
    <v>       0.66688149       0.83338414       0.49988368 </v>
    <v>       0.91672152       0.08343114       0.50002006 </v>
    <v>       0.91657885       0.33320917       0.49993500 </v>
    <v>       0.91636061       0.58318032       0.49982338 </v>
    <v>       0.91650190       0.83338303       0.49988432 </v>
    <v>       0.35847512       0.96690304       0.68982277 </v>
    <v>       0.39203977       0.03392248       0.73480591 </v>
    <v>       0.24171629       0.73359511       0.72654997 </v>
   </varray>
  </structure>
  <varray name="forces" >
   <v>      -0.16405546      -0.00145415      -0.00624628 </v>
   <v>       0.00598703      -0.02776716      -0.06939123 </v>
   <v>       0.08034020       0.12267975       0.09550147 </v>
   <v>       0.12851335       0.01852158       0.06234470 </v>
   <v>       0.25288127      -0.00034881       0.18615648 </v>
   <v>      -0.03732306       0.01726631       0.02941992 </v>
   <v>      -0.07803326       0.12374969       0.09440642 </v>
   <v>       0.00094722       0.05647544       2.22235907 </v>
   <v>      -0.21302206      -0.00093882       0.18079532 </v>
   <v>       0.00075314      -0.19509716       0.19996794 </v>
   <v>       0.04214717       0.00906710      -0.02444563 </v>
   <v>      -0.11811908       0.03241299       0.06077201 </v>
   <v>       0.07100720      -0.00469873      -0.00341401 </v>
   <v>       0.04567356       0.00414614       0.02773286 </v>
   <v>      -0.04158287       0.00884081      -0.02431942 </v>
   <v>       0.00404442       0.00009498       0.02284518 </v>
   <v>      -0.02758172      -0.00091861      -0.16326578 </v>
   <v>      -0.00002308      -0.05591286      -0.14713808 </v>
   <v>      -0.01708448      -0.01241334      -0.22358812 </v>
   <v>      -0.00543863       0.03022315      -0.20483843 </v>
   <v>      -0.01430663       0.00232805      -0.15124304 </v>
   <v>       0.00612608       0.01613699      -0.16000570 </v>
   <v>       0.01860608      -0.01277061      -0.22367462 </v>
   <v>      -0.00058124      -0.01475578      -0.22172112 </v>
   <v>       0.01554717       0.00122354      -0.15141077 </v>
   <v>      -0.00167422       0.02253868      -0.20089656 </v>
   <v>       0.03793652      -0.03700766      -0.14744326 </v>
   <v>       0.00545657       0.03045839      -0.20473600 </v>
   <v>       0.02803200      -0.00130054      -0.16324469 </v>
   <v>      -0.00456109       0.01674592      -0.15995080 </v>
   <v>      -0.03772591      -0.03669537      -0.14722697 </v>
   <v>      -0.00103831       0.00767983      -0.12083681 </v>
   <v>       0.15792471      -0.08657418       0.24776112 </v>
   <v>      -0.05812041       0.02592300       0.14257518 </v>
   <v>       0.00040149      -0.17952489      -0.20285170 </v>
   <v>      -0.14101812       0.13694494      -0.04638858 </v>
   <v>       0.00082862      -0.08399617       0.24557335 </v>
   <v>      -0.01226128      -0.01332549       0.08011371 </v>
   <v>      -0.04043082      -0.01536226       0.14376186 </v>
   <v>       0.14286692       0.13710828      -0.04529513 </v>
   <v>      -0.15126668      -0.09027172       0.25965765 </v>
   <v>       0.01217470      -0.01433265       0.08124882 </v>
   <v>       0.00072708       0.03927006       0.19268516 </v>
   <v>       0.01997255       0.02540577       0.13351591 </v>
   <v>       0.00433292       0.03619833       0.09965203 </v>
   <v>       0.05890452       0.02515894       0.14335018 </v>
   <v>       0.04006441      -0.01627658       0.14343556 </v>
   <v>      -0.02031186       0.02477740       0.13151946 </v>
   <v>       0.00224174      -0.33044775      -1.17558324 </v>
   <v>       0.00037568      -0.19232879       0.49799698 </v>
   <v>       0.00074596       0.45314403      -1.33599236 </v>
  </varray>
  <varray name="stress" >
   <v>       1.81371589      -0.01381185      -0.00837400 </v>
   <v>      -0.01381154       1.32316023       0.32293355 </v>
   <v>      -0.00837398       0.32293356       2.74764378 </v>
  </varray>
  <energy>
   <i name="e_fr_energy">   -176.39255484 </i>
   <i name="e_wo_entrp">   -176.32641189 </i>
   <i name="e_0_energy">   -176.37050719 </i>
  </energy>
  <time name="totalsc">   10.24   10.32</time>
 </calculation>
 <calculation>
  <scstep>
   <time name="dav">    1.88    1.89</time>
   <time name="total">    1.94    1.95</time>
   <energy>
    <i name="alphaZ">   1044.42981019 </i>
    <i name="ewald"> 153167.85501109 </i>
    <i name="hartreedc">-216627.94092476 </i>
    <i name="XCdc">   2161.85970138 </i>
    <i name="pawpsdc">  63272.16092730 </i>
    <i name="pawaedc"> -68447.11968938 </i>
    <i name="eentropy">     -0.06632284 </i>
    <i name="bandstr">  -1803.94952054 </i>
    <i name="atom">  67056.38188117 </i>
    <i name="e_fr_energy">   -176.38912638 </i>
    <i name="e_wo_entrp">   -176.32280354 </i>
    <i name="e_0_energy">   -176.36701877 </i>
   </energy>
  </scstep>
  <scstep>
   <time name="diag">    0.31    0.31</time>
   <time name="diis">    0.71    0.72</time>
   <time name="orth">    0.09    0.09</time>
   <time name="total">    1.17    1.18</time>
   <energy>
    <i name="e_fr_energy">   -176.39194354 </i>
    <i name="e_wo_entrp">   -176.32570625 </i>
    <i name="e_0_energy">   -176.36986444 </i>
   </energy>
  </scstep>
  <scstep>
   <time name="diag">    0.31    0.31</time>
   <time name="diis">    0.98    0.99</time>
   <time name="orth">    0.09    0.09</time>
   <time name="total">    1.44    1.45</time>
   <energy>
    <i name="e_fr_energy">   -176.39336752 </i>
    <i name="e_wo_entrp">   -176.32706278 </i>
    <i name="e_0_energy">   -176.37126594 </i>
   </energy>
  </scstep>
  <scstep>
   <time name="diag">    0.31    0.31</time>
   <time name="diis">    0.72    0.73</time>
   <time name="orth">    0.09    0.09</time>
   <time name="total">    1.19    1.20</time>
   <energy>
    <i name="e_fr_energy">   -176.39334045 </i>
    <i name="e_wo_entrp">   -176.32706481 </i>
    <i name="e_0_energy">   -176.37124857 </i>
   </energy>
  </scstep>
  <scstep>
   <time name="diag">    0.31    0.31</time>
   <time name="diis">    0.69    0.70</time>
   <time name="orth">    0.09    0.09</time>
   <time name="total">    1.15    1.16</time>
   <energy>
    <i name="e_fr_energy">   -176.39328198 </i>
    <i name="e_wo_entrp">   -176.32686841 </i>
    <i name="e_0_energy">   -176.37114412 </i>
   </energy>
  </scstep>
  <scstep>
   <time name="diag">    0.31    0.31</time>
   <time name="diis">    0.80    0.81</time>
   <time name="orth">    0.09    0.09</time>
   <time name="total">    1.26    1.27</time>
   <energy>
    <i name="e_fr_energy">   -176.39321358 </i>
    <i name="e_wo_entrp">   -176.32697194 </i>
    <i name="e_0_energy">   -176.37113303 </i>
   </energy>
  </scstep>
  <scstep>
   <time name="diag">    0.31    0.31</time>
   <time name="diis">    0.66    0.67</time>
   <time name="orth">    0.09    0.09</time>
   <time name="total">    1.07    1.08</time>
   <energy>
    <i name="alphaZ">   1044.42981019 </i>
    <i name="ewald"> 153167.85501109 </i>
    <i name="hartreedc">-216627.99970712 </i>
    <i name="XCdc">   2161.86098019 </i>
    <i name="pawpsdc">  63272.20100896 </i>
    <i name="pawaedc"> -68447.15948225 </i>
    <i name="eentropy">     -0.06633630 </i>
    <i name="bandstr">  -1803.89637455 </i>
    <i name="atom">  67056.38188117 </i>
    <i name="e_fr_energy">   -176.39320863 </i>
    <i name="e_wo_entrp">   -176.32687233 </i>
    <i name="e_0_energy">   -176.37109653 </i>
   </energy>
  </scstep>
  <structure>
   <crystal>
    <varray name="basis" >
     <v>      10.11850195       0.00000000       0.00000000 </v>
     <v>      -5.05925097       8.76287974       0.00000000 </v>
     <v>       0.00000000       0.00000000      18.58887505 </v>
    </varray>
    <i name="volume">   1648.22379336 </i>
    <varray name="rec_basis" >
     <v>       0.09882886       0.05705887      -0.00000000 </v>
     <v>       0.00000000       0.11411774      -0.00000000 </v>
     <v>       0.00000000       0.00000000       0.05379562 </v>
    </varray>
   </crystal>
   <varray name="positions" >
    <v>       0.99989893       0.00261798       0.61211041 </v>
    <v>       0.00015586       0.25029098       0.61424211 </v>
    <v>       0.99785550       0.49818244       0.61332683 </v>
    <v>       0.99577386       0.74883338       0.61118244 </v>
    <v>       0.24461825       0.00349658       0.61785775 </v>
    <v>       0.25038876       0.25251671       0.61203141 </v>
    <v>       0.25028306       0.49816929       0.61333556 </v>
    <v>       0.24714372       0.74430019       0.60079812 </v>
    <v>       0.50889131       0.00349596       0.61783904 </v>
    <v>       0.50343632       0.25687246       0.61055064 </v>
    <v>       0.50086962       0.50136773       0.61349391 </v>
    <v>       0.50303909       0.74882950       0.61118529 </v>
    <v>       0.75186545       0.00092911       0.61210956 </v>
    <v>       0.75212443       0.25252145       0.61203018 </v>
    <v>       0.75047971       0.50135286       0.61349339 </v>
    <v>       0.75038618       0.75071074       0.61329459 </v>
    <v>       0.08333834       0.16669679       0.38889480 </v>
    <v>       0.08329087       0.41658144       0.38881589 </v>
    <v>       0.08324173       0.66661886       0.38874480 </v>
    <v>       0.08328270       0.91671784       0.38880154 </v>
    <v>       0.33333537       0.16668690       0.38887502 </v>
    <v>       0.33334319       0.41662617       0.38884724 </v>
    <v>       0.33337781       0.66661929       0.38874475 </v>
    <v>       0.33337641       0.91675291       0.38874120 </v>
    <v>       0.58335169       0.16668593       0.38887505 </v>
    <v>       0.58336653       0.41667220       0.38889273 </v>
    <v>       0.58337471       0.66665318       0.38883971 </v>
    <v>       0.58343639       0.91671784       0.38880153 </v>
    <v>       0.83335869       0.16669603       0.38889492 </v>
    <v>       0.83328481       0.41662614       0.38884732 </v>
    <v>       0.83327927       0.66665341       0.38883985 </v>
    <v>       0.83336484       0.91667708       0.38887599 </v>
    <v>       0.16663061       0.08335862       0.49997106 </v>
    <v>       0.16663104       0.33320961       0.49993484 </v>
    <v>       0.16617957       0.58235651       0.49922243 </v>
    <v>       0.16616722       0.83380641       0.49920896 </v>
    <v>       0.41681461       0.08362931       0.49981018 </v>
    <v>       0.41664571       0.33340356       0.50001824 </v>
    <v>       0.41682090       0.58318171       0.49982316 </v>
    <v>       0.41763983       0.83380691       0.49920845 </v>
    <v>       0.66672856       0.08335851       0.49997100 </v>
    <v>       0.66675827       0.33340352       0.50001867 </v>
    <v>       0.66664242       0.58329966       0.49995707 </v>
    <v>       0.66688149       0.83338414       0.49988368 </v>
    <v>       0.91672152       0.08343114       0.50002006 </v>
    <v>       0.91657885       0.33320917       0.49993500 </v>
    <v>       0.91636061       0.58318032       0.49982338 </v>
    <v>       0.91650190       0.83338303       0.49988432 </v>
    <v>       0.35847512       0.96690304       0.68982277 </v>
    <v>       0.39203977       0.03392248       0.73480591 </v>
    <v>       0.24171629       0.73359511       0.72654997 </v>
   </varray>
  </structure>
  <varray name="forces" >
   <v>      -0.02255963      -0.11323289       0.00080883 </v>
   <v>      -0.01595950       0.00910394      -0.06573129 </v>
   <v>       0.07905251       0.12482045       0.09525770 </v>
   <v>       0.10965714       0.05193961       0.05865839 </v>
   <v>       0.21319850      -0.00049041       0.18005918 </v>
   <v>      -0.03158522       0.02570100       0.02999774 </v>
   <v>      -0.07891786       0.12541495       0.09431844 </v>
   <v>      -0.00116075       0.05735631       2.22266906 </v>
   <v>      -0.21395067      -0.00084737       0.18087687 </v>
   <v>      -0.00044341      -0.19558881       0.20033451 </v>
   <v>       0.04217405       0.00970152      -0.02446719 </v>
   <v>      -0.11938022       0.03252290       0.06071503 </v>
   <v>       0.03858038      -0.00497429      -0.00137380 </v>
   <v>       0.04345093       0.00523208       0.02782772 </v>
   <v>      -0.04202482       0.01017969      -0.02431714 </v>
   <v>       0.00904760       0.00848548       0.02153247 </v>
   <v>      -0.02750262      -0.00040496      -0.16336398 </v>
   <v>       0.00051964      -0.05726416      -0.14766210 </v>
   <v>      -0.01672343      -0.01299183      -0.22348760 </v>
   <v>      -0.00581701       0.03021403      -0.20478427 </v>
   <v>      -0.01464534       0.00202310      -0.15139869 </v>
   <v>       0.00547823       0.01611316      -0.16032818 </v>
   <v>       0.01671804      -0.01109156      -0.22361128 </v>
   <v>      -0.00037256      -0.01456566      -0.22165787 </v>
   <v>       0.01456793       0.00203003      -0.15160227 </v>
   <v>      -0.00209909       0.02309864      -0.20012712 </v>
   <v>       0.03734489      -0.03700417      -0.14713974 </v>
   <v>       0.00646908       0.03020021      -0.20459256 </v>
   <v>       0.02712263      -0.00056871      -0.16306526 </v>
   <v>      -0.00531428       0.01676175      -0.15990675 </v>
   <v>      -0.03718982      -0.03593904      -0.14723129 </v>
   <v>      -0.00196138       0.00749555      -0.12068668 </v>
   <v>       0.15552012      -0.08999790       0.25315733 </v>
   <v>      -0.05935863       0.02746175       0.14090657 </v>
   <v>      -0.00093918      -0.17811870      -0.20273063 </v>
   <v>      -0.14252545       0.13887776      -0.04461251 </v>
   <v>      -0.00054761      -0.08389866       0.24630270 </v>
   <v>      -0.01266939      -0.01330170       0.08016244 </v>
   <v>      -0.04011966      -0.01502327       0.14446844 </v>
   <v>       0.14178225       0.13691396      -0.04590545 </v>
   <v>      -0.15243502      -0.09058739       0.25918153 </v>
   <v>       0.01213776      -0.01402784       0.08081257 </v>
   <v>       0.00078403       0.03978965       0.19331658 </v>
   <v>       0.01913125       0.02596302       0.13250359 </v>
   <v>      -0.00490757       0.04045649       0.07995568 </v>
   <v>       0.05827470       0.02577991       0.14216334 </v>
   <v>       0.03939935      -0.01526485       0.14429612 </v>
   <v>      -0.01853288       0.03105129       0.14415905 </v>
   <v>      -0.00043226      -0.33058718      -1.17713364 </v>
   <v>      -0.00088111      -0.19201381       0.49845637 </v>
   <v>       0.00054534       0.45309690      -1.33598095 </v>
  </varray>
  <varray name="stress" >
   <v>       1.82694761      -0.01808513       0.00108583 </v>
   <v>      -0.01808487       1.36174648       0.30762155 </v>
   <v>       0.00108585       0.30762155       2.76668205 </v>
  </varray>
  <energy>
   <i name="e_fr_energy">   -176.39320863 </i>
   <i name="e_wo_entrp">   -176.32687233 </i>
   <i name="e_0_energy">   -176.37109653 </i>
  </energy>
  <time name="totalsc">   10.46   10.53</time>
 </calculation>
 <calculation>
  <scstep>
   <time name="dav">    1.86    1.87</time>
   <time name="total">    1.92    1.94</time>
   <energy>
    <i name="alphaZ">   1044.42981019 </i>
    <i name="ewald"> 153129.29284190 </i>
    <i name="hartreedc">-216589.59410151 </i>
    <i name="XCdc">   2161.83941641 </i>
    <i name="pawpsdc">  63272.15672054 </i>
    <i name="pawaedc"> -68447.10941850 </i>
    <i name="eentropy">     -0.06624786 </i>
    <i name="bandstr">  -1803.72056443 </i>
    <i name="atom">  67056.38188117 </i>
    <i name="e_fr_energy">   -176.38966209 </i>
    <i name="e_wo_entrp">   -176.32341423 </i>
    <i name="e_0_energy">   -176.36757947 </i>
   </energy>
  </scstep>
  <scstep>
   <time name="diag">    0.31    0.31</time>
   <time name="diis">    0.71    0.71</time>
   <time name="orth">    0.09    0.09</time>
   <time name="total">    1.17    1.18</time>
   <energy>
    <i name="e_fr_energy">   -176.39230226 </i>
    <i name="e_wo_entrp">   -176.32591962 </i>
    <i name="e_0_energy">   -176.37017471 </i>
   </energy>
  </scstep>
  <scstep>
   <time name="diag">    0.31    0.31</time>
   <time name="diis">    0.98    0.99</time>
   <time name="orth">    0.09    0.09</time>
   <time name="total">    1.44    1.45</time>
   <energy>
    <i name="e_fr_energy">   -176.39366337 </i>
    <i name="e_wo_entrp">   -176.32735224 </i>
    <i name="e_0_energy">   -176.37155966 </i>
   </energy>
  </scstep>
  <scstep>
   <time name="diag">    0.31    0.31</time>
   <time name="diis">    0.86    0.87</time>
   <time name="orth">    0.09    0.09</time>
   <time name="total">    1.32    1.33</time>
   <energy>
    <i name="e_fr_energy">   -176.39360895 </i>
    <i name="e_wo_entrp">   -176.32730929 </i>
    <i name="e_0_energy">   -176.37150907 </i>
   </energy>
  </scstep>
  <scstep>
   <time name="diag">    0.31    0.31</time>
   <time name="diis">    0.57    0.57</time>
   <time name="orth">    0.09    0.09</time>
   <time name="total">    1.03    1.04</time>
   <energy>
    <i name="e_fr_energy">   -176.39355771 </i>
    <i name="e_wo_entrp">   -176.32717966 </i>
    <i name="e_0_energy">   -176.37143170 </i>
   </energy>
  </scstep>
  <scstep>
   <time name="diag">    0.31    0.31</time>
   <time name="diis">    0.90    0.91</time>
   <time name="orth">    0.09    0.09</time>
   <time name="total">    1.36    1.37</time>
   <energy>
    <i name="e_fr_energy">   -176.39350639 </i>
    <i name="e_wo_entrp">   -176.32730749 </i>
    <i name="e_0_energy">   -176.37144009 </i>
   </energy>
  </scstep>
  <scstep>
   <time name="diag">    0.31    0.31</time>
   <time name="diis">    0.66    0.67</time>
   <time name="orth">    0.09    0.09</time>
   <time name="total">    1.13    1.13</time>
   <energy>
    <i name="e_fr_energy">   -176.39349556 </i>
    <i name="e_wo_entrp">   -176.32714380 </i>
    <i name="e_0_energy">   -176.37137830 </i>
   </energy>
  </scstep>
  <scstep>
   <time name="diag">    0.31    0.31</time>
   <time name="diis">    0.45    0.45</time>
   <time name="orth">    0.09    0.09</time>
   <time name="total">    0.86    0.86</time>
   <energy>
    <i name="alphaZ">   1044.42981019 </i>
    <i name="ewald"> 153129.29284190 </i>
    <i name="hartreedc">-216589.48836259 </i>
    <i name="XCdc">   2161.84287311 </i>
    <i name="pawpsdc">  63269.52079465 </i>
    <i name="pawaedc"> -68444.43983642 </i>
    <i name="eentropy">     -0.06631372 </i>
    <i name="bandstr">  -1803.86717995 </i>
    <i name="atom">  67056.38188117 </i>
    <i name="e_fr_energy">   -176.39349165 </i>
    <i name="e_wo_entrp">   -176.32717793 </i>
    <i name="e_0_energy">   -176.37138708 </i>
   </energy>
  </scstep>
  <structure>
   <crystal>
    <varray name="basis" >
     <v>      10.11850195       0.00000000       0.00000000 </v>
     <v>      -5.05925097       8.76287974       0.00000000 </v>
     <v>       0.00000000       0.00000000      18.58887505 </v>
    </varray>
    <i name="volume">   1648.22379336 </i>
    <varray name="rec_basis" >
     <v>       0.09882886       0.05705887      -0.00000000 </v>
     <v>       0.00000000       0.11411774      -0.00000000 </v>
     <v>       0.00000000       0.00000000       0.05379562 </v>
    </varray>
   </crystal>
   <varray name="positions" >
    <v>       0.99904304       0.00090621       0.61291734 </v>
    <v>       0.00015586       0.25029098       0.61424211 </v>
    <v>       0.99785550       0.49818244       0.61332683 </v>
    <v>       0.99577386       0.74883338       0.61118244 </v>
    <v>       0.24461825       0.00349658       0.61785775 </v>
    <v>       0.25038876       0.25251671       0.61203141 </v>
    <v>       0.25028306       0.49816929       0.61333556 </v>
    <v>       0.24714372       0.74430019       0.60079812 </v>
    <v>       0.50889131       0.00349596       0.61783904 </v>
    <v>       0.50343632       0.25687246       0.61055064 </v>
    <v>       0.50086962       0.50136773       0.61349391 </v>
    <v>       0.50303909       0.74882950       0.61118529 </v>
    <v>       0.75186545       0.00092911       0.61210956 </v>
    <v>       0.75212443       0.25252145       0.61203018 </v>
    <v>       0.75047971       0.50135286       0.61349339 </v>
    <v>       0.75038618       0.75071074       0.61329459 </v>
    <v>       0.08333834       0.16669679       0.38889480 </v>
    <v>       0.08329087       0.41658144       0.38881589 </v>
    <v>       0.08324173       0.66661886       0.38874480 </v>
    <v>       0.08328270       0.91671784       0.38880154 </v>
    <v>       0.33333537       0.16668690       0.38887502 </v>
    <v>       0.33334319       0.41662617       0.38884724 </v>
    <v>       0.33337781       0.66661929       0.38874475 </v>
    <v>       0.33337641       0.91675291       0.38874120 </v>
    <v>       0.58335169       0.16668593       0.38887505 </v>
    <v>       0.58336653       0.41667220       0.38889273 </v>
    <v>       0.58337471       0.66665318       0.38883971 </v>
    <v>       0.58343639       0.91671784       0.38880153 </v>
    <v>       0.83335869       0.16669603       0.38889492 </v>
    <v>       0.83328481       0.41662614       0.38884732 </v>
    <v>       0.83327927       0.66665341       0.38883985 </v>
    <v>       0.83336484       0.91667708       0.38887599 </v>
    <v>       0.16663061       0.08335862       0.49997106 </v>
    <v>       0.16663104       0.33320961       0.49993484 </v>
    <v>       0.16617957       0.58235651       0.49922243 </v>
    <v>       0.16616722       0.83380641       0.49920896 </v>
    <v>       0.41681461       0.08362931       0.49981018 </v>
    <v>       0.41664571       0.33340356       0.50001824 </v>
    <v>       0.41682090       0.58318171       0.49982316 </v>
    <v>       0.41763983       0.83380691       0.49920845 </v>
    <v>       0.66672856       0.08335851       0.49997100 </v>
    <v>       0.66675827       0.33340352       0.50001867 </v>
    <v>       0.66664242       0.58329966       0.49995707 </v>
    <v>       0.66688149       0.83338414       0.49988368 </v>
    <v>       0.91672152       0.08343114       0.50002006 </v>
    <v>       0.91657885       0.33320917       0.49993500 </v>
    <v>       0.91636061       0.58318032       0.49982338 </v>
    <v>       0.91650190       0.83338303       0.49988432 </v>
    <v>       0.35847512       0.96690304       0.68982277 </v>
    <v>       0.39203977       0.03392248       0.73480591 </v>
    <v>       0.24171629       0.73359511       0.72654997 </v>
   </varray>
  </structure>
  <varray name="forces" >
   <v>      -0.04283219      -0.00176142      -0.06011997 </v>
   <v>      -0.00014909      -0.01571706      -0.06682256 </v>
   <v>       0.07972988       0.12329057       0.09484756 </v>
   <v>       0.11997859       0.03408640       0.06215295 </v>
   <v>       0.21295413       0.00033488       0.17841126 </v>
   <v>      -0.04447265       0.00303088       0.02943230 </v>
   <v>      -0.07822136       0.12344517       0.09447021 </v>
   <v>       0.00024953       0.05694321       2.22211057 </v>
   <v>      -0.21371673      -0.00088522       0.17978116 </v>
   <v>      -0.00016798      -0.19573903       0.20055847 </v>
   <v>       0.04168360       0.00844967      -0.02437445 </v>
   <v>      -0.11893114       0.03160181       0.06035496 </v>
   <v>       0.04051994      -0.00430284       0.00001150 </v>
   <v>       0.04446169       0.00486953       0.02810329 </v>
   <v>      -0.04203888       0.00853608      -0.02398670 </v>
   <v>      -0.00125352      -0.01102921       0.02505950 </v>
   <v>      -0.02734624      -0.00093496      -0.16288870 </v>
   <v>       0.00018937      -0.05692200      -0.14744933 </v>
   <v>      -0.01745707      -0.01240405      -0.22397128 </v>
   <v>      -0.00510842       0.03038570      -0.20459894 </v>
   <v>      -0.01461344       0.00178585      -0.15240420 </v>
   <v>       0.00633899       0.01627152      -0.16025991 </v>
   <v>       0.01716029      -0.01253211      -0.22285663 </v>
   <v>      -0.00004056      -0.01433251      -0.22227890 </v>
   <v>       0.01476686       0.00116343      -0.15122957 </v>
   <v>      -0.00193399       0.02260487      -0.20009660 </v>
   <v>       0.03820172      -0.03623090      -0.14771204 </v>
   <v>       0.00677326       0.03016543      -0.20531176 </v>
   <v>       0.02781769      -0.00099621      -0.16379275 </v>
   <v>      -0.00476338       0.01642552      -0.15977494 </v>
   <v>      -0.03757254      -0.03683028      -0.14774868 </v>
   <v>      -0.00144442       0.00735334      -0.12028257 </v>
   <v>       0.14161295      -0.09675896       0.27759240 </v>
   <v>      -0.05918557       0.02618979       0.14256243 </v>
   <v>       0.00002498      -0.17883108      -0.20324031 </v>
   <v>      -0.14240369       0.13754849      -0.04527535 </v>
   <v>      -0.00044652      -0.08457922       0.24649780 </v>
   <v>      -0.01303662      -0.01444193       0.08087824 </v>
   <v>      -0.04067536      -0.01556190       0.14408320 </v>
   <v>       0.14150220       0.13743495      -0.04558034 </v>
   <v>      -0.15122622      -0.09084479       0.25964427 </v>
   <v>       0.01286608      -0.01416756       0.08038546 </v>
   <v>       0.00047129       0.03986236       0.19271019 </v>
[...]
       <r>    4.4317    0.0000 </r>
       <r>    4.5295    0.0000 </r>
       <r>    4.5691    0.0000 </r>
       <r>    4.6233    0.0000 </r>
       <r>    4.6557    0.0000 </r>
       <r>    4.9435    0.0000 </r>
       <r>    4.9949    0.0000 </r>
       <r>    5.0317    0.0000 </r>
       <r>    5.0961    0.0000 </r>
       <r>    5.0997    0.0000 </r>
       <r>    5.1324    0.0000 </r>
       <r>    5.2264    0.0000 </r>
       <r>    5.2977    0.0000 </r>
       <r>    5.4310    0.0000 </r>
       <r>    5.6041    0.0000 </r>
       <r>    5.6148    0.0000 </r>
       <r>    5.7189    0.0000 </r>
       <r>    5.8190    0.0000 </r>
       <r>    5.8528    0.0000 </r>
       <r>    5.8989    0.0000 </r>
       <r>    5.9435    0.0000 </r>
       <r>    5.9464    0.0000 </r>
       <r>    5.9527    0.0000 </r>
      </set>
     </set>
    </set>
   </array>
  </eigenvalues>
  <separator name="orbital magnetization" >
   <v name="MAGDIPOLOUT">      0.00000000      0.00000000      0.00000000</v>
  </separator>
  <dos>
   <i name="efermi">     -0.44175534 </i>
   <total>
    <array>
     <dimension dim="1">gridpoints</dimension>
     <dimension dim="2">spin</dimension>
     <field>energy</field>
     <field>total</field>
     <field>integrated</field>
     <set>
      <set comment="spin 1">
       <r>   -16.6193     0.0000     0.0000 </r>
       <r>   -16.5391     0.0000     0.0000 </r>
       <r>   -16.4589     0.0000     0.0000 </r>
       <r>   -16.3788    -0.0000    -0.0000 </r>
       <r>   -16.2986    -0.0000    -0.0000 </r>
       <r>   -16.2184    -0.0000    -0.0000 </r>
       <r>   -16.1382    -0.0000    -0.0000 </r>
       <r>   -16.0580    -0.0000    -0.0000 </r>
       <r>   -15.9778    -0.0000    -0.0000 </r>
       <r>   -15.8976    -0.0000    -0.0000 </r>
       <r>   -15.8174    -0.0037    -0.0003 </r>
       <r>   -15.7372    -0.1316    -0.0108 </r>
       <r>   -15.6570    -0.7227    -0.0688 </r>
       <r>   -15.5768     3.9507     0.2480 </r>
       <r>   -15.4966    15.2418     1.4703 </r>
       <r>   -15.4164     7.4104     2.0646 </r>
       <r>   -15.3362    -0.5293     2.0221 </r>
       <r>   -15.2561    -0.2643     2.0009 </r>
       <r>   -15.1759    -0.0114     2.0000 </r>
       <r>   -15.0957    -0.0001     2.0000 </r>
       <r>   -15.0155    -0.0000     2.0000 </r>
       <r>   -14.9353    -0.0000     2.0000 </r>
       <r>   -14.8551    -0.0000     2.0000 </r>
       <r>   -14.7749     0.0000     2.0000 </r>
       <r>   -14.6947     0.0000     2.0000 </r>
       <r>   -14.6145     0.0000     2.0000 </r>
       <r>   -14.5343     0.0000     2.0000 </r>
       <r>   -14.4541     0.0000     2.0000 </r>
       <r>   -14.3739     0.0000     2.0000 </r>
       <r>   -14.2937     0.0000     2.0000 </r>
       <r>   -14.2135     0.0000     2.0000 </r>
       <r>   -14.1333     0.0000     2.0000 </r>
       <r>   -14.0532     0.0000     2.0000 </r>
       <r>   -13.9730     0.0000     2.0000 </r>
       <r>   -13.8928     0.0000     2.0000 </r>
       <r>   -13.8126     0.0000     2.0000 </r>
       <r>   -13.7324     0.0000     2.0000 </r>
       <r>   -13.6522     0.0000     2.0000 </r>
       <r>   -13.5720     0.0000     2.0000 </r>
       <r>   -13.4918     0.0000     2.0000 </r>
       <r>   -13.4116     0.0000     2.0000 </r>
       <r>   -13.3314     0.0000     2.0000 </r>
       <r>   -13.2512     0.0000     2.0000 </r>
       <r>   -13.1710     0.0000     2.0000 </r>
       <r>   -13.0908     0.0000     2.0000 </r>
       <r>   -13.0106     0.0000     2.0000 </r>
       <r>   -12.9304     0.0000     2.0000 </r>
       <r>   -12.8503     0.0000     2.0000 </r>
       <r>   -12.7701     0.0000     2.0000 </r>
       <r>   -12.6899     0.0000     2.0000 </r>
       <r>   -12.6097     0.0000     2.0000 </r>
       <r>   -12.5295     0.0000     2.0000 </r>
       <r>   -12.4493     0.0000     2.0000 </r>
       <r>   -12.3691     0.0000     2.0000 </r>
       <r>   -12.2889     0.0000     2.0000 </r>
       <r>   -12.2087     0.0000     2.0000 </r>
       <r>   -12.1285     0.0000     2.0000 </r>
       <r>   -12.0483     0.0000     2.0000 </r>
       <r>   -11.9681     0.0000     2.0000 </r>
       <r>   -11.8879     0.0000     2.0000 </r>
       <r>   -11.8077     0.0000     2.0000 </r>
       <r>   -11.7276     0.0000     2.0000 </r>
       <r>   -11.6474     0.0000     2.0000 </r>
       <r>   -11.5672     0.0000     2.0000 </r>
       <r>   -11.4870     0.0000     2.0000 </r>
       <r>   -11.4068     0.0000     2.0000 </r>
       <r>   -11.3266     0.0000     2.0000 </r>
       <r>   -11.2464     0.0000     2.0000 </r>
       <r>   -11.1662     0.0000     2.0000 </r>
       <r>   -11.0860     0.0000     2.0000 </r>
       <r>   -11.0058     0.0000     2.0000 </r>
       <r>   -10.9256     0.0000     2.0000 </r>
       <r>   -10.8454     0.0000     2.0000 </r>
       <r>   -10.7652     0.0000     2.0000 </r>
       <r>   -10.6850     0.0000     2.0000 </r>
       <r>   -10.6048     0.0000     2.0000 </r>
       <r>   -10.5247     0.0000     2.0000 </r>
       <r>   -10.4445     0.0000     2.0000 </r>
       <r>   -10.3643     0.0000     2.0000 </r>
       <r>   -10.2841     0.0000     2.0000 </r>
       <r>   -10.2039     0.0000     2.0000 </r>
       <r>   -10.1237     0.0000     2.0000 </r>
       <r>   -10.0435    -0.0000     2.0000 </r>
       <r>    -9.9633    -0.0000     2.0000 </r>
       <r>    -9.8831    -0.0000     2.0000 </r>
       <r>    -9.8029    -0.0000     2.0000 </r>
       <r>    -9.7227    -0.0000     2.0000 </r>
       <r>    -9.6425    -0.0000     2.0000 </r>
       <r>    -9.5623    -0.0000     2.0000 </r>
       <r>    -9.4821    -0.0034     1.9997 </r>
       <r>    -9.4020    -0.0500     1.9957 </r>
       <r>    -9.3218     0.0304     1.9981 </r>
       <r>    -9.2416     1.1799     2.0928 </r>
       <r>    -9.1614     1.0704     2.1786 </r>
       <r>    -9.0812     1.2490     2.2788 </r>
       <r>    -9.0010     8.9553     2.9969 </r>
       <r>    -8.9208     7.1487     3.5702 </r>
       <r>    -8.8406     0.1147     3.5794 </r>
       <r>    -8.7604    -0.4893     3.5402 </r>
       <r>    -8.6802    -0.2082     3.5235 </r>
       <r>    -8.6000     5.2354     3.9433 </r>
       <r>    -8.5198     9.3788     4.6954 </r>
       <r>    -8.4396     3.2147     4.9532 </r>
       <r>    -8.3594     7.9699     5.5924 </r>
       <r>    -8.2792     7.8051     6.2183 </r>
       <r>    -8.1991     0.4098     6.2511 </r>
       <r>    -8.1189    -0.3347     6.2243 </r>
       <r>    -8.0387    -0.0348     6.2215 </r>
       <r>    -7.9585    -0.2370     6.2025 </r>
       <r>    -7.8783    -0.7787     6.1400 </r>
       <r>    -7.7981     6.6005     6.6694 </r>
       <r>    -7.7179    19.5810     8.2396 </r>
       <r>    -7.6377     9.0623     8.9664 </r>
       <r>    -7.5575     0.7207     9.0242 </r>
       <r>    -7.4773     0.3674     9.0536 </r>
       <r>    -7.3971     2.4760     9.2522 </r>
       <r>    -7.3169    15.5179    10.4966 </r>
       <r>    -7.2367    18.5733    11.9861 </r>
       <r>    -7.1565     3.9217    12.3005 </r>
       <r>    -7.0763    -0.8597    12.2316 </r>
       <r>    -6.9962    -0.6110    12.1826 </r>
       <r>    -6.9160     0.1616    12.1956 </r>
       <r>    -6.8358    10.7828    13.0603 </r>
       <r>    -6.7556    17.9123    14.4967 </r>
       <r>    -6.6754    15.2167    15.7170 </r>
       <r>    -6.5952    25.3737    17.7518 </r>
       <r>    -6.5150    12.2940    18.7377 </r>
       <r>    -6.4348    -0.9926    18.6581 </r>
       <r>    -6.3546     4.3341    19.0056 </r>
       <r>    -6.2744    13.6038    20.0966 </r>
       <r>    -6.1942    15.5004    21.3396 </r>
       <r>    -6.1140     5.8565    21.8093 </r>
       <r>    -6.0338    -0.3751    21.7792 </r>
       <r>    -5.9536     6.2096    22.2771 </r>
       <r>    -5.8735     9.1945    23.0145 </r>
       <r>    -5.7933    16.5211    24.3394 </r>
       <r>    -5.7131    38.0394    27.3899 </r>
       <r>    -5.6329    36.4252    30.3109 </r>
       <r>    -5.5527    19.0537    31.8389 </r>
       <r>    -5.4725    17.0504    33.2062 </r>
       <r>    -5.3923     7.0291    33.7699 </r>
       <r>    -5.3121    25.8681    35.8443 </r>
       <r>    -5.2319    59.4148    40.6090 </r>
       <r>    -5.1517    45.3943    44.2493 </r>
       <r>    -5.0715    61.1476    49.1529 </r>
       <r>    -4.9913    70.7268    54.8247 </r>
       <r>    -4.9111    54.7975    59.2191 </r>
       <r>    -4.8309    48.6571    63.1211 </r>
       <r>    -4.7507    52.2606    67.3120 </r>
       <r>    -4.6706    81.8493    73.8758 </r>
       <r>    -4.5904   109.4084    82.6496 </r>
       <r>    -4.5102    97.4516    90.4645 </r>
       <r>    -4.4300    85.0756    97.2870 </r>
       <r>    -4.3498    93.3479   104.7729 </r>
       <r>    -4.2696    82.2998   111.3728 </r>
       <r>    -4.1894    77.7220   117.6055 </r>
       <r>    -4.1092    83.4106   124.2945 </r>
       <r>    -4.0290    66.9366   129.6624 </r>
       <r>    -3.9488   116.8670   139.0343 </r>
       <r>    -3.8686   165.3963   152.2979 </r>
       <r>    -3.7884   110.8860   161.1902 </r>
       <r>    -3.7082    82.1984   167.7820 </r>
       <r>    -3.6280   114.7310   176.9826 </r>
       <r>    -3.5479   172.3704   190.8055 </r>
       <r>    -3.4677   156.7895   203.3790 </r>
       <r>    -3.3875   147.9207   215.2412 </r>
       <r>    -3.3073   201.7954   231.4238 </r>
       <r>    -3.2271   227.2573   249.6483 </r>
       <r>    -3.1469   237.1862   268.6690 </r>
       <r>    -3.0667   224.4415   286.6677 </r>
       <r>    -2.9865   166.7799   300.0423 </r>
       <r>    -2.9063   117.0894   309.4321 </r>
       <r>    -2.8261   117.8226   318.8806 </r>
       <r>    -2.7459   140.9623   330.1848 </r>
       <r>    -2.6657   192.4992   345.6220 </r>
       <r>    -2.5855   241.6297   364.9990 </r>
       <r>    -2.5053   222.0906   382.8091 </r>
       <r>    -2.4251   163.1346   395.8914 </r>
       <r>    -2.3450   156.7989   408.4656 </r>
       <r>    -2.2648   173.2188   422.3566 </r>
       <r>    -2.1846   219.9149   439.9922 </r>
       <r>    -2.1044   285.7717   462.9092 </r>
       <r>    -2.0242   299.6615   486.9400 </r>
       <r>    -1.9440   158.9766   499.6888 </r>
       <r>    -1.8638    63.5131   504.7821 </r>
       <r>    -1.7836    43.4551   508.2669 </r>
       <r>    -1.7034    32.5449   510.8768 </r>
       <r>    -1.6232    29.6137   513.2516 </r>
       <r>    -1.5430    36.6772   516.1929 </r>
       <r>    -1.4628    35.4761   519.0378 </r>
       <r>    -1.3826    21.0274   520.7241 </r>
       <r>    -1.3024    12.9067   521.7591 </r>
       <r>    -1.2222     2.6938   521.9751 </r>
       <r>    -1.1421     4.4487   522.3319 </r>
       <r>    -1.0619    17.1530   523.7074 </r>
       <r>    -0.9817    11.8540   524.6580 </r>
       <r>    -0.9015    10.1113   525.4689 </r>
       <r>    -0.8213    20.6450   527.1245 </r>
       <r>    -0.7411    18.5284   528.6103 </r>
       <r>    -0.6609    11.3979   529.5244 </r>
       <r>    -0.5807    15.4965   530.7671 </r>
       <r>    -0.5005    19.9850   532.3697 </r>
       <r>    -0.4203    48.0674   536.2244 </r>
       <r>    -0.3401    42.1160   539.6018 </r>
       <r>    -0.2599    13.7268   540.7026 </r>
       <r>    -0.1797    17.2326   542.0846 </r>
       <r>    -0.0995    18.0678   543.5335 </r>
       <r>    -0.0194    14.0812   544.6627 </r>
       <r>     0.0608     6.0695   545.1494 </r>
       <r>     0.1410     4.1401   545.4814 </r>
       <r>     0.2212     5.3742   545.9124 </r>
       <r>     0.3014     1.4612   546.0296 </r>
       <r>     0.3816     7.4081   546.6237 </r>
       <r>     0.4618     9.9763   547.4237 </r>
       <r>     0.5420    12.6413   548.4375 </r>
       <r>     0.6222    21.4877   550.1606 </r>
       <r>     0.7024    27.7324   552.3846 </r>
       <r>     0.7826    30.2523   554.8106 </r>
       <r>     0.8628    19.3794   556.3647 </r>
       <r>     0.9430    24.1169   558.2987 </r>
       <r>     1.0232    26.6094   560.4326 </r>
       <r>     1.1034    10.2243   561.2525 </r>
       <r>     1.1835    11.3027   562.1589 </r>
       <r>     1.2637    15.0447   563.3654 </r>
       <r>     1.3439    19.6323   564.9398 </r>
       <r>     1.4241    10.3665   565.7711 </r>
       <r>     1.5043     4.8982   566.1639 </r>
       <r>     1.5845     8.6394   566.8567 </r>
       <r>     1.6647    10.1036   567.6670 </r>
       <r>     1.7449    26.8186   569.8176 </r>
       <r>     1.8251    27.5351   572.0257 </r>
       <r>     1.9053    13.2103   573.0851 </r>
       <r>     1.9855    23.5410   574.9729 </r>
       <r>     2.0657    22.6971   576.7931 </r>
       <r>     2.1459    14.4354   577.9507 </r>
       <r>     2.2261    12.2396   578.9322 </r>
       <r>     2.3063     5.7610   579.3942 </r>
       <r>     2.3864     6.4133   579.9085 </r>
       <r>     2.4666     9.5867   580.6773 </r>
       <r>     2.5468     6.3904   581.1898 </r>
       <r>     2.6270    14.6699   582.3662 </r>
       <r>     2.7072    19.0969   583.8977 </r>
       <r>     2.7874     8.3408   584.5665 </r>
       <r>     2.8676    10.7595   585.4294 </r>
       <r>     2.9478     7.1914   586.0061 </r>
       <r>     3.0280     4.5831   586.3736 </r>
       <r>     3.1082    10.1198   587.1852 </r>
       <r>     3.1884    11.3317   588.0939 </r>
       <r>     3.2686    14.5763   589.2628 </r>
       <r>     3.3488    12.5118   590.2662 </r>
       <r>     3.4290    11.0833   591.1550 </r>
       <r>     3.5091     8.6825   591.8512 </r>
       <r>     3.5893    12.0941   592.8211 </r>
       <r>     3.6695    17.3479   594.2123 </r>
       <r>     3.7497    20.1100   595.8250 </r>
       <r>     3.8299    11.9276   596.7815 </r>
       <r>     3.9101    13.9478   597.9000 </r>
       <r>     3.9903    14.8610   599.0918 </r>
       <r>     4.0705     8.3808   599.7638 </r>
       <r>     4.1507    -0.1992   599.7479 </r>
       <r>     4.2309     3.8201   600.0542 </r>
       <r>     4.3111    18.0968   601.5055 </r>
       <r>     4.3913    14.9247   602.7023 </r>
       <r>     4.4715    14.9064   603.8977 </r>
       <r>     4.5517    29.5391   606.2665 </r>
       <r>     4.6319    32.8270   608.8990 </r>
       <r>     4.7120    24.6816   610.8783 </r>
       <r>     4.7922    12.2561   611.8612 </r>
       <r>     4.8724    10.1603   612.6760 </r>
       <r>     4.9526    15.5785   613.9253 </r>
       <r>     5.0328    27.4158   616.1238 </r>
       <r>     5.1130    45.2208   619.7502 </r>
       <r>     5.1932    38.4404   622.8329 </r>
       <r>     5.2734    23.1647   624.6905 </r>
       <r>     5.3536    21.9903   626.4540 </r>
       <r>     5.4338    28.7802   628.7620 </r>
       <r>     5.5140    24.1409   630.6979 </r>
       <r>     5.5942    23.8967   632.6143 </r>
       <r>     5.6744    21.3716   634.3281 </r>
       <r>     5.7546    14.7959   635.5146 </r>
       <r>     5.8347    28.1819   637.7746 </r>
       <r>     5.9149    41.2841   641.0853 </r>
       <r>     5.9951    36.1854   643.9872 </r>
       <r>     6.0753    13.5484   645.0737 </r>
       <r>     6.1555    10.0883   645.8827 </r>
       <r>     6.2357    12.0945   646.8526 </r>
       <r>     6.3159    10.1800   647.6689 </r>
       <r>     6.3961     4.2060   648.0062 </r>
       <r>     6.4763     0.1355   648.0171 </r>
       <r>     6.5565    -0.1923   648.0017 </r>
       <r>     6.6367    -0.0202   648.0000 </r>
       <r>     6.7169    -0.0005   648.0000 </r>
       <r>     6.7971    -0.0000   648.0000 </r>
       <r>     6.8773    -0.0000   648.0000 </r>
       <r>     6.9575    -0.0000   648.0000 </r>
       <r>     7.0376     0.0000   648.0000 </r>
       <r>     7.1178     0.0000   648.0000 </r>
       <r>     7.1980     0.0000   648.0000 </r>
       <r>     7.2782     0.0000   648.0000 </r>
       <r>     7.3584     0.0000   648.0000 </r>
       <r>     7.4386     0.0000   648.0000 </r>
      </set>
     </set>
    </array>
   </total>
  </dos>
 </calculation>
 <structure name="finalpos" >
  <crystal>
   <varray name="basis" >
    <v>      10.11850195       0.00000000       0.00000000 </v>
    <v>      -5.05925097       8.76287974       0.00000000 </v>
    <v>       0.00000000       0.00000000      18.58887505 </v>
   </varray>
   <i name="volume">   1648.22379336 </i>
   <varray name="rec_basis" >
    <v>       0.09882886       0.05705887      -0.00000000 </v>
    <v>       0.00000000       0.11411774      -0.00000000 </v>
    <v>       0.00000000       0.00000000       0.05379562 </v>
   </varray>
  </crystal>
  <varray name="positions" >
   <v>       0.99904304       0.00090621       0.61211041 </v>
   <v>       0.00015586       0.25029098       0.61424211 </v>
   <v>       0.99785550       0.49818244       0.61332683 </v>
   <v>       0.99577386       0.74883338       0.61118244 </v>
   <v>       0.24461825       0.00349658       0.61785775 </v>
   <v>       0.25038876       0.25251671       0.61203141 </v>
   <v>       0.25028306       0.49816929       0.61333556 </v>
   <v>       0.24714372       0.74430019       0.60079812 </v>
   <v>       0.50889131       0.00349596       0.61783904 </v>
   <v>       0.50343632       0.25687246       0.61055064 </v>
   <v>       0.50086962       0.50136773       0.61349391 </v>
   <v>       0.50303909       0.74882950       0.61118529 </v>
   <v>       0.75186545       0.00092911       0.61210956 </v>
   <v>       0.75212443       0.25252145       0.61203018 </v>
   <v>       0.75047971       0.50135286       0.61349339 </v>
   <v>       0.75038618       0.75071074       0.61329459 </v>
   <v>       0.08333834       0.16669679       0.38889480 </v>
   <v>       0.08329087       0.41658144       0.38881589 </v>
   <v>       0.08324173       0.66661886       0.38874480 </v>
   <v>       0.08328270       0.91671784       0.38880154 </v>
   <v>       0.33333537       0.16668690       0.38887502 </v>
   <v>       0.33334319       0.41662617       0.38884724 </v>
   <v>       0.33337781       0.66661929       0.38874475 </v>
   <v>       0.33337641       0.91675291       0.38874120 </v>
   <v>       0.58335169       0.16668593       0.38887505 </v>
   <v>       0.58336653       0.41667220       0.38889273 </v>
   <v>       0.58337471       0.66665318       0.38883971 </v>
   <v>       0.58343639       0.91671784       0.38880153 </v>
   <v>       0.83335869       0.16669603       0.38889492 </v>
   <v>       0.83328481       0.41662614       0.38884732 </v>
   <v>       0.83327927       0.66665341       0.38883985 </v>
   <v>       0.83336484       0.91667708       0.38887599 </v>
   <v>       0.16663061       0.08335862       0.49997106 </v>
   <v>       0.16663104       0.33320961       0.49993484 </v>
   <v>       0.16617957       0.58235651       0.49922243 </v>
   <v>       0.16616722       0.83380641       0.49920896 </v>
   <v>       0.41681461       0.08362931       0.49981018 </v>
   <v>       0.41664571       0.33340356       0.50001824 </v>
   <v>       0.41682090       0.58318171       0.49982316 </v>
   <v>       0.41763983       0.83380691       0.49920845 </v>
   <v>       0.66672856       0.08335851       0.49997100 </v>
   <v>       0.66675827       0.33340352       0.50001867 </v>
   <v>       0.66664242       0.58329966       0.49995707 </v>
   <v>       0.66688149       0.83338414       0.49988368 </v>
   <v>       0.91672152       0.08343114       0.50002006 </v>
   <v>       0.91657885       0.33320917       0.49993500 </v>
   <v>       0.91636061       0.58318032       0.49982338 </v>
   <v>       0.91650190       0.83338303       0.49988432 </v>
   <v>       0.35847512       0.96690304       0.68982277 </v>
   <v>       0.39203977       0.03392248       0.73480591 </v>
   <v>       0.24171629       0.73359511       0.72735691 </v>
  </varray>
 </structure>
</modeling>
