  51  51   0   0
  0.3231811E+02  0.1011850E-08  0.1011850E-08  0.1858888E-08  0.1500000E-16
  1.000000000000000E-004
  CAR 
 Bulk Frequency (Finite Difference)      
      7.59556506    -16.74798441  301     -0.41742396      1.00000000
    -16.748  0.0000E+00  0.0000E+00
    -16.667  0.0000E+00  0.0000E+00
    -16.586  0.0000E+00  0.0000E+00
    -16.505 -0.2648E-30 -0.2149E-31
    -16.423 -0.1506E-24 -0.1222E-25
    -16.342 -0.2269E-19 -0.1841E-20
    -16.261 -0.9038E-15 -0.7334E-16
    -16.180 -0.9160E-11 -0.7434E-12
    -16.099 -0.2483E-07 -0.2016E-08
    -16.018 -0.1729E-04 -0.1405E-05
    -15.937 -0.2999E-02 -0.2447E-03
    -15.855 -0.1192E+00 -0.9920E-02
    -15.774 -0.7164E+00 -0.6806E-01
    -15.693  0.3816E+01  0.2416E+00
    -15.612  0.1521E+02  0.1475E+01
    -15.531  0.7276E+01  0.2066E+01
    -15.450 -0.5565E+00  0.2021E+01
    -15.369 -0.2452E+00  0.2001E+01
    -15.287 -0.9581E-02  0.2000E+01
    -15.206 -0.8164E-04  0.2000E+01
    -15.125 -0.1709E-06  0.2000E+01
    -15.044 -0.9133E-10  0.2000E+01
    -14.963 -0.1095E-13  0.2000E+01
    -14.882  0.0000E+00  0.2000E+01
    -14.801  0.0000E+00  0.2000E+01
    -14.719  0.0000E+00  0.2000E+01
    -14.638  0.0000E+00  0.2000E+01
    -14.557  0.0000E+00  0.2000E+01
    -14.476  0.0000E+00  0.2000E+01
    -14.395  0.0000E+00  0.2000E+01
    -14.314  0.0000E+00  0.2000E+01
    -14.232  0.0000E+00  0.2000E+01
    -14.151  0.0000E+00  0.2000E+01
    -14.070  0.0000E+00  0.2000E+01
    -13.989  0.0000E+00  0.2000E+01
    -13.908  0.0000E+00  0.2000E+01
    -13.827  0.0000E+00  0.2000E+01
    -13.746  0.0000E+00  0.2000E+01
    -13.664  0.0000E+00  0.2000E+01
    -13.583  0.0000E+00  0.2000E+01
    -13.502  0.0000E+00  0.2000E+01
    -13.421  0.0000E+00  0.2000E+01
    -13.340  0.0000E+00  0.2000E+01
    -13.259  0.0000E+00  0.2000E+01
    -13.178  0.0000E+00  0.2000E+01
    -13.096  0.0000E+00  0.2000E+01
    -13.015  0.0000E+00  0.2000E+01
    -12.934  0.0000E+00  0.2000E+01
    -12.853  0.0000E+00  0.2000E+01
    -12.772  0.0000E+00  0.2000E+01
    -12.691  0.0000E+00  0.2000E+01
    -12.610  0.0000E+00  0.2000E+01
    -12.528  0.0000E+00  0.2000E+01
    -12.447  0.0000E+00  0.2000E+01
    -12.366  0.0000E+00  0.2000E+01
    -12.285  0.0000E+00  0.2000E+01
    -12.204  0.0000E+00  0.2000E+01
    -12.123  0.0000E+00  0.2000E+01
    -12.042  0.0000E+00  0.2000E+01
    -11.960  0.0000E+00  0.2000E+01
    -11.879  0.0000E+00  0.2000E+01
    -11.798  0.0000E+00  0.2000E+01
    -11.717  0.0000E+00  0.2000E+01
    -11.636  0.0000E+00  0.2000E+01
    -11.555  0.0000E+00  0.2000E+01
    -11.474  0.0000E+00  0.2000E+01
    -11.392  0.0000E+00  0.2000E+01
    -11.311  0.0000E+00  0.2000E+01
    -11.230  0.0000E+00  0.2000E+01
    -11.149  0.0000E+00  0.2000E+01
    -11.068  0.0000E+00  0.2000E+01
    -10.987  0.0000E+00  0.2000E+01
    -10.906  0.0000E+00  0.2000E+01
    -10.824  0.0000E+00  0.2000E+01
    -10.743  0.0000E+00  0.2000E+01
    -10.662  0.0000E+00  0.2000E+01
    -10.581  0.0000E+00  0.2000E+01
    -10.500  0.0000E+00  0.2000E+01
    -10.419  0.0000E+00  0.2000E+01
    -10.338  0.0000E+00  0.2000E+01
    -10.256  0.0000E+00  0.2000E+01
    -10.175  0.0000E+00  0.2000E+01
    -10.094 -0.9137E-32  0.2000E+01
    -10.013 -0.5804E-26  0.2000E+01
     -9.932 -0.9776E-21  0.2000E+01
     -9.851 -0.4354E-16  0.2000E+01
     -9.770 -0.4940E-12  0.2000E+01
     -9.688 -0.1499E-08  0.2000E+01
     -9.607 -0.1170E-05  0.2000E+01
     -9.526 -0.2285E-03  0.2000E+01
     -9.445 -0.1035E-01  0.1999E+01
     -9.364 -0.7684E-01  0.1993E+01
     -9.283  0.3210E+00  0.2019E+01
     -9.201  0.1510E+01  0.2141E+01
     -9.120  0.4968E+00  0.2182E+01
     -9.039  0.4020E+01  0.2508E+01
     -8.958  0.1026E+02  0.3341E+01
     -8.877  0.3226E+01  0.3602E+01
     -8.796 -0.5363E+00  0.3559E+01
     -8.715 -0.5092E+00  0.3518E+01
     -8.633  0.1759E+01  0.3660E+01
     -8.552  0.9083E+01  0.4397E+01
     -8.471  0.5819E+01  0.4870E+01
     -8.390  0.5163E+01  0.5289E+01
     -8.309  0.9791E+01  0.6083E+01
     -8.228  0.2259E+01  0.6266E+01
     -8.147 -0.4740E+00  0.6228E+01
     -8.065 -0.1463E+00  0.6216E+01
     -7.984 -0.5298E+00  0.6173E+01
     -7.903  0.2031E+01  0.6338E+01
     -7.822  0.1118E+02  0.7245E+01
     -7.741  0.1332E+02  0.8326E+01
     -7.660  0.9457E+01  0.9094E+01
     -7.579  0.4598E+01  0.9467E+01
     -7.497  0.8666E+01  0.1017E+02
     -7.416  0.9048E+01  0.1090E+02
     -7.335  0.8176E+01  0.1157E+02
     -7.254  0.7295E+01  0.1216E+02
     -7.173  0.1106E+01  0.1225E+02
     -7.092 -0.3856E+00  0.1222E+02
     -7.011 -0.6243E+00  0.1217E+02
     -6.929  0.2824E+01  0.1240E+02
     -6.848  0.1233E+02  0.1340E+02
     -6.767  0.1283E+02  0.1444E+02
     -6.686  0.1176E+02  0.1539E+02
     -6.605  0.2453E+02  0.1738E+02
     -6.524  0.1620E+02  0.1870E+02
     -6.443 -0.2845E+00  0.1867E+02
     -6.361  0.4172E+01  0.1901E+02
     -6.280  0.1293E+02  0.2006E+02
     -6.199  0.1460E+02  0.2125E+02
     -6.118  0.6651E+01  0.2179E+02
     -6.037  0.5416E+00  0.2183E+02
     -5.956  0.7739E+01  0.2246E+02
     -5.875  0.6997E+01  0.2303E+02
     -5.793  0.1392E+02  0.2415E+02
     -5.712  0.3742E+02  0.2719E+02
     -5.631  0.3586E+02  0.3010E+02
     -5.550  0.1950E+02  0.3168E+02
     -5.469  0.1721E+02  0.3308E+02
     -5.388  0.1085E+02  0.3396E+02
     -5.307  0.2883E+02  0.3630E+02
     -5.225  0.5360E+02  0.4065E+02
     -5.144  0.4506E+02  0.4431E+02
     -5.063  0.6278E+02  0.4940E+02
     -4.982  0.6730E+02  0.5486E+02
     -4.901  0.5347E+02  0.5920E+02
     -4.820  0.5038E+02  0.6329E+02
     -4.739  0.5340E+02  0.6762E+02
     -4.657  0.8152E+02  0.7424E+02
     -4.576  0.1058E+03  0.8282E+02
     -4.495  0.9775E+02  0.9075E+02
     -4.414  0.8598E+02  0.9773E+02
     -4.333  0.9823E+02  0.1057E+03
     -4.252  0.8295E+02  0.1124E+03
     -4.170  0.7354E+02  0.1184E+03
     -4.089  0.8170E+02  0.1250E+03
     -4.008  0.6732E+02  0.1305E+03
     -3.927  0.1338E+03  0.1414E+03
     -3.846  0.1606E+03  0.1544E+03
     -3.765  0.9944E+02  0.1625E+03
     -3.684  0.8475E+02  0.1693E+03
     -3.602  0.1307E+03  0.1799E+03
     -3.521  0.1747E+03  0.1941E+03
     -3.440  0.1458E+03  0.2059E+03
     -3.359  0.1619E+03  0.2191E+03
     -3.278  0.2118E+03  0.2363E+03
     -3.197  0.2264E+03  0.2546E+03
     -3.116  0.2329E+03  0.2735E+03
     -3.034  0.2165E+03  0.2911E+03
     -2.953  0.1471E+03  0.3030E+03
     -2.872  0.1108E+03  0.3120E+03
     -2.791  0.1265E+03  0.3223E+03
     -2.710  0.1554E+03  0.3349E+03
     -2.629  0.2058E+03  0.3516E+03
     -2.548  0.2392E+03  0.3710E+03
     -2.466  0.1953E+03  0.3869E+03
     -2.385  0.1596E+03  0.3998E+03
     -2.304  0.1637E+03  0.4131E+03
     -2.223  0.1859E+03  0.4282E+03
     -2.142  0.2414E+03  0.4478E+03
     -2.061  0.3003E+03  0.4721E+03
     -1.980  0.2541E+03  0.4928E+03
     -1.898  0.1126E+03  0.5019E+03
     -1.817  0.5845E+02  0.5066E+03
     -1.736  0.3629E+02  0.5096E+03
     -1.655  0.3025E+02  0.5120E+03
     -1.574  0.2738E+02  0.5143E+03
     -1.493  0.3197E+02  0.5168E+03
     -1.412  0.2623E+02  0.5190E+03
     -1.330  0.1780E+02  0.5204E+03
     -1.249  0.1616E+02  0.5217E+03
     -1.168  0.9710E+01  0.5225E+03
     -1.087  0.1056E+02  0.5234E+03
     -1.006  0.1233E+02  0.5244E+03
     -0.925  0.1156E+02  0.5253E+03
     -0.844  0.1831E+02  0.5268E+03
     -0.762  0.2311E+02  0.5287E+03
     -0.681  0.1042E+02  0.5295E+03
     -0.600  0.1037E+02  0.5304E+03
     -0.519  0.1436E+02  0.5315E+03
     -0.438  0.2954E+02  0.5339E+03
     -0.357  0.5297E+02  0.5382E+03
     -0.276  0.2464E+02  0.5402E+03
     -0.194  0.1169E+02  0.5412E+03
     -0.113  0.1938E+02  0.5427E+03
     -0.032  0.1395E+02  0.5439E+03
      0.049  0.5377E+01  0.5443E+03
      0.130  0.9448E+01  0.5451E+03
      0.211  0.7622E+01  0.5457E+03
      0.293  0.3493E+01  0.5460E+03
      0.374  0.1034E+02  0.5468E+03
      0.455  0.6314E+01  0.5473E+03
      0.536  0.6826E+01  0.5479E+03
      0.617  0.1716E+02  0.5493E+03
      0.698  0.2690E+02  0.5515E+03
      0.779  0.3372E+02  0.5542E+03
      0.861  0.1838E+02  0.5557E+03
      0.942  0.1227E+02  0.5567E+03
      1.023  0.2827E+02  0.5590E+03
      1.104  0.1873E+02  0.5605E+03
      1.185  0.6879E+01  0.5611E+03
      1.266  0.1662E+02  0.5624E+03
      1.347  0.1741E+02  0.5638E+03
      1.429  0.1078E+02  0.5647E+03
      1.510  0.1341E+02  0.5658E+03
      1.591  0.1066E+02  0.5666E+03
      1.672  0.1034E+02  0.5675E+03
      1.753  0.2157E+02  0.5692E+03
      1.834  0.2713E+02  0.5714E+03
      1.915  0.1451E+02  0.5726E+03
      1.997  0.2057E+02  0.5743E+03
      2.078  0.2470E+02  0.5763E+03
      2.159  0.1164E+02  0.5772E+03
      2.240  0.3822E+01  0.5775E+03
      2.321  0.2503E+01  0.5777E+03
      2.402  0.5354E+01  0.5782E+03
      2.483  0.1053E+02  0.5790E+03
      2.565  0.1627E+02  0.5804E+03
      2.646  0.2114E+02  0.5821E+03
      2.727  0.1424E+02  0.5832E+03
      2.808  0.1064E+02  0.5841E+03
      2.889  0.9720E+01  0.5849E+03
      2.970  0.8976E+01  0.5856E+03
      3.051  0.6399E+01  0.5861E+03
      3.133  0.8748E+01  0.5868E+03
      3.214  0.1465E+02  0.5880E+03
      3.295  0.1274E+02  0.5891E+03
      3.376  0.1176E+02  0.5900E+03
      3.457  0.7825E+01  0.5906E+03
      3.538  0.4838E+01  0.5910E+03
      3.619  0.9969E+01  0.5918E+03
      3.701  0.2089E+02  0.5935E+03
      3.782  0.2562E+02  0.5956E+03
      3.863  0.1961E+02  0.5972E+03
      3.944  0.1180E+02  0.5982E+03
      4.025  0.4371E+01  0.5985E+03
      4.106  0.9236E+01  0.5993E+03
      4.187  0.5571E+01  0.5997E+03
      4.269  0.6455E+01  0.6003E+03
      4.350  0.1870E+02  0.6018E+03
      4.431  0.1427E+02  0.6029E+03
      4.512  0.2180E+02  0.6047E+03
      4.593  0.3085E+02  0.6072E+03
      4.674  0.2636E+02  0.6093E+03
      4.755  0.1954E+02  0.6109E+03
      4.837  0.1127E+02  0.6118E+03
      4.918  0.1139E+02  0.6128E+03
      4.999  0.2211E+02  0.6146E+03
      5.080  0.3511E+02  0.6174E+03
      5.161  0.4479E+02  0.6210E+03
      5.242  0.3256E+02  0.6237E+03
      5.324  0.1899E+02  0.6252E+03
      5.405  0.2126E+02  0.6270E+03
      5.486  0.1932E+02  0.6285E+03
      5.567  0.2870E+02  0.6308E+03
      5.648  0.3020E+02  0.6333E+03
      5.729  0.1638E+02  0.6346E+03
      5.810  0.1778E+02  0.6361E+03
      5.892  0.2839E+02  0.6384E+03
      5.973  0.3162E+02  0.6409E+03
      6.054  0.2430E+02  0.6429E+03
      6.135  0.1536E+02  0.6442E+03
      6.216  0.1252E+02  0.6452E+03
      6.297  0.1467E+02  0.6464E+03
      6.378  0.1240E+02  0.6474E+03
      6.460  0.6007E+01  0.6479E+03
      6.541  0.1675E+01  0.6480E+03
      6.622  0.1909E+00  0.6480E+03
      6.703 -0.9590E-01  0.6480E+03
      6.784 -0.1351E-01  0.6480E+03
      6.865 -0.3349E-03  0.6480E+03
      6.946 -0.1928E-05  0.6480E+03
      7.028 -0.2771E-08  0.6480E+03
      7.109 -0.1023E-11  0.6480E+03
      7.190  0.0000E+00  0.6480E+03
      7.271  0.0000E+00  0.6480E+03
      7.352  0.0000E+00  0.6480E+03
      7.433  0.0000E+00  0.6480E+03
      7.514  0.0000E+00  0.6480E+03
      7.596  0.0000E+00  0.6480E+03
