 vasp.6.4.1 05Apr23 (build Jun 16 2023 21:11:36) complex                        
  
 executed on             LinuxIFC date 2026.03.07  16:56:59
 running   96 mpi-ranks, with    1 threads/rank, on    1 nodes
 distrk:  each k-point on   96 cores,    1 groups
 distr:  one band on NCORE=  24 cores,    4 groups


--------------------------------------------------------------------------------------------------------


 INCAR:
   SYSTEM = Bulk Frequency (Finite Difference)
   ISMEAR = 1
   SIGMA = 0.1
   ENCUT = 500
   NELM = 150
   NELMIN = 6
   ISIF = 2
   ALGO = F
   LREAL = Auto
   ISYM = 0
   POTIM = 0.015
   LWAVE = .FALSE.
   LCHARG = .FALSE.
   NPAR = 4
   LREAL = auto
   IBRION = 2
   NSW = 1
   EDIFF = 1E-5

 POTCAR:    PAW_PBE Cu 22Jun2005                  
 POTCAR:    PAW_PBE N 08Apr2002                   
 POTCAR:    PAW_PBE H 15Jun2001                   
 POTCAR:    PAW_PBE Cu 22Jun2005                  
   SHA256 =  0e71e558f37a4e8407882b4609ceaae59938afaad9ced71dfe8490308a0ab630 Cu/POTCAR             
   COPYR  = (c) Copyright 22Jun2005 Georg Kresse                                                    
   COPYR  = This file is part of the software VASP. Any use, copying, and all other rights are regul
   COPYR  = If you do not have a valid VASP license, you may not use, copy or distribute this file. 
   VRHFIN =Cu: d10 p1                                                                               
   LEXCH  = PE                                                                                      
   EATOM  =  1390.9808 eV,  102.2342 Ry                                                             
                                                                                                    
   TITEL  = PAW_PBE Cu 22Jun2005                                                                    
   LULTRA =        F    use ultrasoft PP ?                                                          
   IUNSCR =        1    unscreen: 0-lin 1-nonlin 2-no                                               
   RPACOR =    2.000    partial core radius                                                         
   POMASS =   63.546; ZVAL   =   11.000    mass and valenz                                          
   RCORE  =    2.300    outmost cutoff radius                                                       
   RWIGS  =    2.200; RWIGS  =    1.164    wigner-seitz radius (au A)                               
   ENMAX  =  295.446; ENMIN  =  221.585 eV                                                          
   ICORE  =        3    local potential                                                             
   LCOR   =        T    correct aug charges                                                         
   LPAW   =        T    paw PP                                                                      
   EAUG   =  586.980                                                                                
   DEXC   =    0.000                                                                                
   RMAX   =    2.344    core radius for proj-oper                                                   
   RAUG   =    1.300    factor for augmentation sphere                                              
   RDEP   =    2.302    radius for radial grids                                                     
   RDEPT  =    1.771    core radius for aug-charge                                                  
                                                                                                    
   Atomic configuration                                                                             
    9 entries                                                                                       
     n  l   j            E        occ.                                                              
     1  0  0.50     -8850.2468   2.0000                                                             
     2  0  0.50     -1062.3498   2.0000                                                             
     2  1  1.50      -916.8226   6.0000                                                             
     3  0  0.50      -114.6929   2.0000                                                             
     3  1  1.50       -72.1325   6.0000                                                             
     3  2  2.50        -5.0394  10.0000                                                             
     4  0  0.50        -4.6097   1.0000                                                             
     4  1  0.50        -4.0817   0.0000                                                             
     4  3  2.50        -1.3606   0.0000                                                             
   Description                                                                                      
     l       E           TYP  RCUT    TYP  RCUT                                                     
     2     -5.0393973     23  2.200                                                                 
     2     10.8846608     23  2.200                                                                 
     0     -4.6097109     23  2.200                                                                 
     0      8.2520465     23  2.200                                                                 
     1     -2.7211652     23  2.200                                                                 
     1     21.7055443     23  2.200                                                                 
     3      2.7211652     23  2.300                                                                 
  local pseudopotential read in
  partial core-charges read in
  partial kinetic energy density read in
  atomic valenz-charges read in
  non local Contribution for L=           2  read in
    real space projection operators read in
  non local Contribution for L=           2  read in
    real space projection operators read in
  non local Contribution for L=           0  read in
    real space projection operators read in
  non local Contribution for L=           0  read in
    real space projection operators read in
  non local Contribution for L=           1  read in
    real space projection operators read in
  non local Contribution for L=           1  read in
    real space projection operators read in
    PAW grid and wavefunctions read in
 
   number of l-projection  operators is LMAX  =           6
   number of lm-projection operators is LMMAX =          18
 
 POTCAR:    PAW_PBE N 08Apr2002                   
   SHA256 =  e053789ff3a61a86a1b75d8a110fcc91f86041011e7b0817c7c99e4e8a6349d7 N/POTCAR              
   COPYR  = (c) Copyright 08Apr2002 Georg Kresse                                                    
   COPYR  = This file is part of the software VASP. Any use, copying, and all other rights are regul
   COPYR  = If you do not have a valid VASP license, you may not use, copy or distribute this file. 
   VRHFIN =N: s2p3                                                                                  
   LEXCH  = PE                                                                                      
   EATOM  =   264.5486 eV,   19.4438 Ry                                                             
                                                                                                    
   TITEL  = PAW_PBE N 08Apr2002                                                                     
   LULTRA =        F    use ultrasoft PP ?                                                          
   IUNSCR =        1    unscreen: 0-lin 1-nonlin 2-no                                               
   RPACOR =    1.200    partial core radius                                                         
   POMASS =   14.001; ZVAL   =    5.000    mass and valenz                                          
   RCORE  =    1.500    outmost cutoff radius                                                       
   RWIGS  =    1.400; RWIGS  =    0.741    wigner-seitz radius (au A)                               
   ENMAX  =  400.000; ENMIN  =  300.000 eV                                                          
   ICORE  =        2    local potential                                                             
   LCOR   =        T    correct aug charges                                                         
   LPAW   =        T    paw PP                                                                      
   EAUG   =  627.112                                                                                
   DEXC   =    0.000                                                                                
   RMAX   =    1.529    core radius for proj-oper                                                   
   RAUG   =    1.300    factor for augmentation sphere                                              
   RDEP   =    1.514    radius for radial grids                                                     
   RDEPT  =    1.338    core radius for aug-charge                                                  
                                                                                                    
   Atomic configuration                                                                             
    4 entries                                                                                       
     n  l   j            E        occ.                                                              
     1  0  0.50      -384.7179   2.0000                                                             
     2  0  0.50       -18.5828   2.0000                                                             
     2  1  0.50        -7.0898   3.0000                                                             
     3  2  1.50        -6.8029   0.0000                                                             
   Description                                                                                      
     l       E           TYP  RCUT    TYP  RCUT                                                     
     0    -18.5828119     23  1.200                                                                 
     0    -13.5018863     23  1.200                                                                 
     1     -7.0897853     23  1.500                                                                 
     1      9.5240782     23  1.500                                                                 
     2     -6.8029130      7  1.500                                                                 
  local pseudopotential read in
  partial core-charges read in
  partial kinetic energy density read in
  atomic valenz-charges read in
  non local Contribution for L=           0  read in
    real space projection operators read in
  non local Contribution for L=           0  read in
    real space projection operators read in
  non local Contribution for L=           1  read in
    real space projection operators read in
  non local Contribution for L=           1  read in
    real space projection operators read in
    PAW grid and wavefunctions read in
 
   number of l-projection  operators is LMAX  =           4
   number of lm-projection operators is LMMAX =           8
 
 POTCAR:    PAW_PBE H 15Jun2001                   
   SHA256 =  030f79b5d3ab3cf0e668861823c8fb652ff669f3e15e46930bd03bfd63a607b6 H/POTCAR              
   COPYR  = (c) Copyright 15Jun2001 Georg Kresse                                                    
   COPYR  = This file is part of the software VASP. Any use, copying, and all other rights are regul
   COPYR  = If you do not have a valid VASP license, you may not use, copy or distribute this file. 
   VRHFIN =H: ultrasoft test                                                                        
   LEXCH  = PE                                                                                      
   EATOM  =    12.4884 eV,    0.9179 Ry                                                             
                                                                                                    
   TITEL  = PAW_PBE H 15Jun2001                                                                     
   LULTRA =        F    use ultrasoft PP ?                                                          
   IUNSCR =        0    unscreen: 0-lin 1-nonlin 2-no                                               
   RPACOR =    0.000    partial core radius                                                         
   POMASS =    1.000; ZVAL   =    1.000    mass and valenz                                          
   RCORE  =    1.100    outmost cutoff radius                                                       
   RWIGS  =    0.700; RWIGS  =    0.370    wigner-seitz radius (au A)                               
   ENMAX  =  250.000; ENMIN  =  200.000 eV                                                          
   RCLOC  =    0.701    cutoff for local pot                                                        
   LCOR   =        T    correct aug charges                                                         
   LPAW   =        T    paw PP                                                                      
   EAUG   =  400.000                                                                                
   RMAX   =    1.123    core radius for proj-oper                                                   
   RAUG   =    1.200    factor for augmentation sphere                                              
   RDEP   =    1.112    radius for radial grids                                                     
   RDEPT  =    0.926    core radius for aug-charge                                                  
                                                                                                    
   Atomic configuration                                                                             
    2 entries                                                                                       
     n  l   j            E        occ.                                                              
     1  0  0.50        -6.4927   1.0000                                                             
     2  1  0.50        -3.4015   0.0000                                                             
   Description                                                                                      
     l       E           TYP  RCUT    TYP  RCUT                                                     
     0     -6.4927494     23  1.100                                                                 
     0      6.8029130     23  1.100                                                                 
     1     -4.0817478     23  1.100                                                                 
  local pseudopotential read in
  atomic valenz-charges read in
  non local Contribution for L=           0  read in
    real space projection operators read in
  non local Contribution for L=           0  read in
    real space projection operators read in
  non local Contribution for L=           1  read in
    real space projection operators read in
    PAW grid and wavefunctions read in
 
   number of l-projection  operators is LMAX  =           3
   number of lm-projection operators is LMMAX =           5
 
 Optimization of the real space projectors (new method)

 maximal supplied QI-value         = 16.25
 optimisation between [QCUT,QGAM] = [ 11.38, 22.75] = [ 36.24,144.96] Ry 
 Optimized for a Real-space Cutoff    1.52 Angstroem

   l    n(q)    QCUT    max X(q) W(low)/X(q) W(high)/X(q)  e(spline) 
   2      9    11.376     4.610    0.21E-03    0.10E-03    0.26E-06
   2      9    11.376     8.522    0.33E-03    0.16E-03    0.37E-06
   0     10    11.376    51.609    0.62E-04    0.20E-04    0.13E-06
   0     10    11.376    27.747    0.54E-04    0.20E-04    0.13E-06
   1     10    11.376    20.408    0.13E-04    0.99E-04    0.19E-06
   1     10    11.376    13.425    0.12E-04    0.87E-04    0.17E-06
 Optimization of the real space projectors (new method)

 maximal supplied QI-value         = 25.13
 optimisation between [QCUT,QGAM] = [ 11.31, 22.87] = [ 35.82,146.48] Ry 
 Optimized for a Real-space Cutoff    1.27 Angstroem

   l    n(q)    QCUT    max X(q) W(low)/X(q) W(high)/X(q)  e(spline) 
   0      9    11.310    79.467    0.75E-04    0.16E-03    0.36E-06
   0      9    11.310    66.151    0.74E-04    0.16E-03    0.36E-06
   1      8    11.310    17.416    0.35E-03    0.12E-03    0.95E-06
   1      8    11.310    12.382    0.37E-03    0.13E-03    0.98E-06
 Optimization of the real space projectors (new method)

 maximal supplied QI-value         = 34.20
 optimisation between [QCUT,QGAM] = [ 11.29, 22.57] = [ 35.68,142.71] Ry 
 Optimized for a Real-space Cutoff    1.16 Angstroem

   l    n(q)    QCUT    max X(q) W(low)/X(q) W(high)/X(q)  e(spline) 
   0      8    11.287    19.460    0.40E-03    0.73E-03    0.16E-06
   0      8    11.287    12.209    0.38E-03    0.70E-03    0.15E-06
   1      7    11.287     4.655    0.22E-03    0.25E-04    0.22E-06
  PAW_PBE Cu 22Jun2005                  :
 energy of atom  1       EATOM=-1390.9808
 kinetic energy error for atom=    0.0043 (will be added to EATOM!!)
  PAW_PBE N 08Apr2002                   :
 energy of atom  2       EATOM= -264.5486
 kinetic energy error for atom=    0.0138 (will be added to EATOM!!)
  PAW_PBE H 15Jun2001                   :
 energy of atom  3       EATOM=  -12.4884
 kinetic energy error for atom=    0.0020 (will be added to EATOM!!)
 
 
 POSCAR: Cu N  H
  positions in cartesian coordinates
  No initial velocities read in
 exchange correlation table for  LEXCH =        8
   RHO(1)=    0.500       N(1)  =     2000
   RHO(2)=  100.500       N(2)  =     4000

 VTST: version 4.1, (05/19/21)

 CHAIN: initializing optimizer
 
 OPT: Using VASP Conjugate-Gradient optimizer
 CHAIN: Read ICHAIN            0
 
 POSCAR: Cu N  H
  positions in cartesian coordinates
  No initial velocities read in
 


--------------------------------------------------------------------------------------------------------


 ion  position               nearest neighbor table
   1  0.999  0.002  0.612-   5 2.47  13 2.49   2 2.51  45 2.53  16 2.53   4 2.54   6 2.54  33 2.55
                            48 2.55
   2  0.000  0.251  0.615-  13 2.51   1 2.51   6 2.52  14 2.52   7 2.53   3 2.53  34 2.59  46 2.59
                            45 2.59
   3  0.991  0.496  0.610-  14 2.44  15 2.47  47 2.49  46 2.50   2 2.53   4 2.54  35 2.56   8 2.63
                             7 2.67
   4  0.996  0.750  0.611-  16 2.49  15 2.50  48 2.52  47 2.54   1 2.54   3 2.54   5 2.55  36 2.56
                             8 2.57
   5  0.244  0.006  0.618-  49 1.89   1 2.47   6 2.47   4 2.55  33 2.58  10 2.58   8 2.59  37 2.66
                            36 2.67   9 2.71
   6  0.251  0.252  0.612-   7 2.45   5 2.47   2 2.52  11 2.53  34 2.54  10 2.54   1 2.54  38 2.54
                            33 2.55
   7  0.255  0.496  0.610-   6 2.45  11 2.47  39 2.49  34 2.50   2 2.53  12 2.54  35 2.56   8 2.63
                             3 2.67
   8  0.252  0.754  0.608-  49 2.15  40 2.48  36 2.48  35 2.51  12 2.57   4 2.57   5 2.59   9 2.59
                             7 2.63   3 2.63
   9  0.512  0.006  0.618-  49 1.89  13 2.46  14 2.47  12 2.55  41 2.58  10 2.58   8 2.59  37 2.66
                            40 2.67   5 2.71
  10  0.503  0.257  0.612-  15 2.49  11 2.49  42 2.52  38 2.52  14 2.53   6 2.54  37 2.57   9 2.58
                             5 2.58
  11  0.502  0.502  0.613-   7 2.47  10 2.49  12 2.50  15 2.51  16 2.52   6 2.53  43 2.56  39 2.57
                            38 2.57
  12  0.504  0.750  0.611-  16 2.49  11 2.50  44 2.52  39 2.54  13 2.54   7 2.54   9 2.55  40 2.56
                             8 2.57
  13  0.753  0.002  0.612-   9 2.46   1 2.49   2 2.51  45 2.53  16 2.53  12 2.54  14 2.54  41 2.55
                            44 2.55
  14  0.752  0.252  0.612-   3 2.44   9 2.47   2 2.52  15 2.53  10 2.53  46 2.54  13 2.54  42 2.54
                            41 2.55
  15  0.750  0.502  0.613-   3 2.47  10 2.49   4 2.50  11 2.51  16 2.52  14 2.53  43 2.56  47 2.57
                            42 2.57
  16  0.751  0.751  0.613-  12 2.49   4 2.49  11 2.52  15 2.52  13 2.53   1 2.53  44 2.56  48 2.56
                            43 2.57
  17  0.083  0.167  0.389-  34 2.52  33 2.53  32 2.53  18 2.53  20 2.53  21 2.53  29 2.53  22 2.53
                            45 2.53
  18  0.083  0.417  0.389-  35 2.52  46 2.53  34 2.53  17 2.53  29 2.53  30 2.53  22 2.53  23 2.53
                            19 2.53
  19  0.083  0.667  0.389-  35 2.52  36 2.53  47 2.53  31 2.53  30 2.53  20 2.53  18 2.53  24 2.53
                            23 2.53
  20  0.083  0.917  0.389-  36 2.52  32 2.53  17 2.53  48 2.53  21 2.53  31 2.53  19 2.53  24 2.53
                            33 2.53
  21  0.333  0.167  0.389-  37 2.53  22 2.53  38 2.53  17 2.53  26 2.53  33 2.53  24 2.53  20 2.53
                            25 2.53
  22  0.333  0.417  0.389-  39 2.53  34 2.53  21 2.53  26 2.53  17 2.53  23 2.53  27 2.53  18 2.53
                            38 2.53
  23  0.333  0.667  0.389-  35 2.52  40 2.53  39 2.53  27 2.53  22 2.53  28 2.53  18 2.53  24 2.53
                            19 2.53
  24  0.333  0.917  0.389-  40 2.52  36 2.52  37 2.53  25 2.53  21 2.53  20 2.53  28 2.53  19 2.53
                            23 2.53
  25  0.583  0.167  0.389-  37 2.53  30 2.53  42 2.53  26 2.53  29 2.53  41 2.53  24 2.53  28 2.53
                            21 2.53
  26  0.583  0.417  0.389-  43 2.53  30 2.53  25 2.53  31 2.53  42 2.53  22 2.53  21 2.53  27 2.53
                            38 2.53
  27  0.583  0.667  0.389-  39 2.52  31 2.53  43 2.53  44 2.53  26 2.53  23 2.53  28 2.53  32 2.53
                            22 2.53
  28  0.583  0.917  0.389-  40 2.52  32 2.53  29 2.53  44 2.53  25 2.53  27 2.53  23 2.53  24 2.53
                            41 2.53
  29  0.833  0.167  0.389-  46 2.52  41 2.53  18 2.53  32 2.53  28 2.53  25 2.53  17 2.53  30 2.53
                            45 2.53
  30  0.833  0.417  0.389-  47 2.53  46 2.53  25 2.53  26 2.53  29 2.53  19 2.53  42 2.53  18 2.53
                            31 2.53
  31  0.833  0.667  0.389-  47 2.52  27 2.53  43 2.53  26 2.53  48 2.53  19 2.53  32 2.53  20 2.53
                            30 2.53
  32  0.833  0.917  0.389-  48 2.53  44 2.53  20 2.53  17 2.53  29 2.53  28 2.53  31 2.53  27 2.53
                            45 2.53
  33  0.167  0.084  0.500-  34 2.52  36 2.53  17 2.53  45 2.53  38 2.53  21 2.53  48 2.53  20 2.53
                            37 2.53   1 2.55   6 2.55   5 2.58
  34  0.167  0.333  0.500-   7 2.50  17 2.52  33 2.52  45 2.53  22 2.53  18 2.53  38 2.53  46 2.53
                            35 2.53  39 2.53   6 2.54   2 2.59
  35  0.167  0.583  0.499-   8 2.51  18 2.52  23 2.52  19 2.52  34 2.53  46 2.53  39 2.53  47 2.53
                            40 2.54  36 2.54   7 2.56   3 2.56
  36  0.166  0.834  0.499-   8 2.48  20 2.52  24 2.52  19 2.53  48 2.53  33 2.53  47 2.53  37 2.53
                            35 2.54  40 2.54   4 2.56   5 2.67
  37  0.417  0.084  0.500-  21 2.53  25 2.53  38 2.53  42 2.53  24 2.53  40 2.53  36 2.53  33 2.53
                            41 2.53  10 2.57   9 2.66   5 2.66
  38  0.417  0.333  0.500-  10 2.52  37 2.53  33 2.53  39 2.53  21 2.53  34 2.53  43 2.53  26 2.53
                            42 2.53  22 2.53   6 2.54  11 2.57
  39  0.417  0.583  0.500-   7 2.49  27 2.52  43 2.53  22 2.53  23 2.53  44 2.53  38 2.53  40 2.53
                            35 2.53  34 2.53  12 2.54  11 2.57
  40  0.417  0.834  0.499-   8 2.48  28 2.52  24 2.52  23 2.53  44 2.53  41 2.53  39 2.53  37 2.53
                            35 2.54  36 2.54  12 2.56   9 2.67
  41  0.667  0.084  0.500-  46 2.52  40 2.53  29 2.53  45 2.53  42 2.53  25 2.53  44 2.53  28 2.53
                            37 2.53  13 2.55  14 2.55   9 2.58
  42  0.667  0.333  0.500-  10 2.52  37 2.53  47 2.53  41 2.53  25 2.53  46 2.53  26 2.53  38 2.53
                            30 2.53  43 2.53  14 2.54  15 2.57
  43  0.667  0.583  0.500-  39 2.53  47 2.53  26 2.53  27 2.53  44 2.53  31 2.53  48 2.53  38 2.53
                            42 2.53  11 2.56  15 2.56  16 2.57
  44  0.667  0.833  0.500-  12 2.52  48 2.53  40 2.53  32 2.53  39 2.53  45 2.53  43 2.53  27 2.53
                            28 2.53  41 2.53  13 2.55  16 2.56
  45  0.917  0.083  0.500-   1 2.53  13 2.53  34 2.53  46 2.53  33 2.53  41 2.53  48 2.53  44 2.53
                            17 2.53  29 2.53  32 2.53   2 2.59
  46  0.917  0.333  0.500-   3 2.50  29 2.52  41 2.52  45 2.53  30 2.53  18 2.53  42 2.53  34 2.53
                            35 2.53  47 2.53  14 2.54   2 2.59
  47  0.916  0.583  0.500-   3 2.49  31 2.52  30 2.53  43 2.53  19 2.53  48 2.53  42 2.53  36 2.53
                            35 2.53  46 2.53   4 2.54  15 2.57
  48  0.917  0.833  0.500-   4 2.52  44 2.53  36 2.53  32 2.53  47 2.53  45 2.53  31 2.53  20 2.53
                            43 2.53  33 2.53   1 2.55  16 2.56
  49  0.346  0.943  0.682-  50 1.02   9 1.89   5 1.89   8 2.15
  50  0.363  0.976  0.735-  49 1.02
  51  0.158  0.566  0.706-
 

IMPORTANT INFORMATION: All symmetrisations will be switched off!
NOSYMM: (Re-)initialisation of all symmetry stuff for point group C_1.


----------------------------------------------------------------------------------------

                                     Primitive cell                                     

  volume of cell :    1648.2238

  direct lattice vectors                    reciprocal lattice vectors
    10.118501948  0.000000000  0.000000000     0.098828859  0.057058868 -0.000000000
    -5.059250974  8.762879736  0.000000000     0.000000000  0.114117736 -0.000000000
     0.000000000  0.000000000 18.588875051     0.000000000  0.000000000  0.053795617

  length of vectors
    10.118501948 10.118501948 18.588875051     0.114117736  0.114117736  0.053795617

  position of ions in fractional coordinates (direct lattice)
     0.998959990  0.002279128  0.611946606
     0.000356054  0.250692852  0.615202173
     0.991226978  0.496224309  0.609781194
     0.996014936  0.749982530  0.611293811
     0.244129194  0.005834538  0.617651908
     0.250634426  0.252471592  0.611916962
     0.254903899  0.496204207  0.609805346
     0.252204110  0.754404938  0.607773477
     0.511738540  0.005838312  0.617612194
     0.503481354  0.256631231  0.611523810
     0.501531659  0.501535660  0.613236986
     0.503924188  0.749975020  0.611299097
     0.753321908  0.002314540  0.611945313
     0.751841635  0.252483562  0.611914336
     0.749970830  0.501513605  0.613234807
     0.750549987  0.751206940  0.613300301
     0.083328600  0.166685976  0.388882456
     0.083315142  0.416629897  0.388804453
     0.083296556  0.666682176  0.388771795
     0.083304619  0.916715321  0.388819534
     0.333321782  0.166731176  0.388872949
     0.333358145  0.416646088  0.388823537
     0.333385440  0.666682083  0.388771765
     0.333374326  0.916748818  0.388783257
     0.583409578  0.166730457  0.388872766
     0.583356474  0.416671888  0.388869688
     0.583387078  0.666686377  0.388829508
     0.583411209  0.916715354  0.388819390
     0.833357804  0.166685688  0.388882389
     0.833289384  0.416646538  0.388823505
     0.833298621  0.666686285  0.388830313
     0.833381234  0.916741612  0.388885537
     0.166613079  0.083553103  0.499964497
     0.166541863  0.333056353  0.499747379
     0.166661817  0.583321790  0.499446899
     0.166399670  0.833726201  0.499472102
     0.416811329  0.083622448  0.499828398
     0.416662518  0.333337567  0.499976365
     0.417119409  0.583484780  0.499647696
     0.417325906  0.833725925  0.499472131
     0.666941744  0.083552497  0.499963829
     0.666679550  0.333341175  0.499973781
     0.666643770  0.583361904  0.499926848
     0.666876097  0.833444212  0.499903376
     0.916724704  0.083441329  0.500024198
     0.916515798  0.333056358  0.499747068
     0.916361956  0.583485809  0.499646934
     0.916565645  0.833442175  0.499903563
     0.346420128  0.942711166  0.682151240
     0.363199370  0.976113617  0.734766673
     0.158016515  0.566270057  0.705902063

  ion indices of the primitive-cell ions
   primitive index   ion index
                 1           1
                 2           2
                 3           3
                 4           4
                 5           5
                 6           6
                 7           7
                 8           8
                 9           9
                10          10
                11          11
                12          12
                13          13
                14          14
                15          15
                16          16
                17          17
                18          18
                19          19
                20          20
                21          21
                22          22
                23          23
                24          24
                25          25
                26          26
                27          27
                28          28
                29          29
                30          30
                31          31
                32          32
                33          33
                34          34
                35          35
                36          36
                37          37
                38          38
                39          39
                40          40
                41          41
                42          42
                43          43
                44          44
                45          45
                46          46
                47          47
                48          48
                49          49
                50          50
                51          51

----------------------------------------------------------------------------------------

 
 
 KPOINTS: K-Spacing Value to Generate K-Mesh: 0.03

Automatic generation of k-mesh.
 Grid dimensions read from file:
 generate k-points for:    3    3    1

 Generating k-lattice:

  Cartesian coordinates                     Fractional coordinates (reciprocal lattice)
     0.032942953  0.019019623 -0.000000000     0.333333333  0.000000000  0.000000000
     0.000000000  0.038039245 -0.000000000     0.000000000  0.333333333  0.000000000
     0.000000000  0.000000000  0.053795617     0.000000000  0.000000000  1.000000000

  Length of vectors
     0.038039245  0.038039245  0.053795617

  Shift w.r.t. Gamma in fractional coordinates (k-lattice)
     0.000000000  0.000000000  0.000000000

 
 Subroutine IBZKPT returns following result:
 ===========================================
 
 Found      5 irreducible k-points:
 
 Following reciprocal coordinates:
            Coordinates               Weight
  0.000000  0.000000  0.000000      1.000000
  0.333333  0.000000 -0.000000      2.000000
  0.000000  0.333333 -0.000000      2.000000
 -0.333333  0.333333 -0.000000      2.000000
  0.333333  0.333333 -0.000000      2.000000
 
 Following cartesian coordinates:
            Coordinates               Weight
  0.000000  0.000000  0.000000      1.000000
  0.032943  0.019020 -0.000000      2.000000
  0.000000  0.038039 -0.000000      2.000000
 -0.032943  0.019020 -0.000000      2.000000
  0.032943  0.057059 -0.000000      2.000000
 


--------------------------------------------------------------------------------------------------------




 Dimension of arrays:
   k-points           NKPTS =      5   k-points in BZ     NKDIM =      5   number of bands    NBANDS=    324
   number of dos      NEDOS =    301   number of ions     NIONS =     51
   non local maximal  LDIM  =      6   non local SUM 2l+1 LMDIM =     18
   total plane-waves  NPLWV = 338688
   max r-space proj   IRMAX =   3064   max aug-charges    IRDMAX=   6151
   dimension x,y,z NGX =    56 NGY =   56 NGZ =  108
   dimension x,y,z NGXF=   112 NGYF=  112 NGZF=  216
   support grid    NGXF=   112 NGYF=  112 NGZF=  216
   ions per type =              48   1   2
   NGX,Y,Z   is equivalent  to a cutoff of   9.20,  9.20,  9.66 a.u.
   NGXF,Y,Z  is equivalent  to a cutoff of  18.40, 18.40, 19.32 a.u.

 SYSTEM =  Bulk Frequency (Finite Difference)      
 POSCAR =  Cu N  H                                 

 Startparameter for this run:
   NWRITE =      2    write-flag & timer
   PREC   = normal    normal or accurate (medium, high low for compatibility)
   ISTART =      0    job   : 0-new  1-cont  2-samecut
   ICHARG =      2    charge: 1-file 2-atom 10-const
   ISPIN  =      1    spin polarized calculation?
   LNONCOLLINEAR =      F non collinear calculations
   LSORBIT =      F    spin-orbit coupling
   INIWAV =      1    electr: 0-lowe 1-rand  2-diag
   LASPH  =      F    aspherical Exc in radial PAW
 Electronic Relaxation 1
   ENCUT  =  500.0 eV  36.75 Ry    6.06 a.u.  18.45 18.45 33.89*2*pi/ulx,y,z
   ENINI  =  500.0     initial cutoff
   ENAUG  =  627.1 eV  augmentation charge cutoff
   NELM   =    150;   NELMIN=  6; NELMDL= -5     # of ELM steps 
   EDIFF  = 0.1E-04   stopping-criterion for ELM
   LREAL  =      T    real-space projection
   NLSPLINE    = F    spline interpolate recip. space projectors
   LCOMPAT=      F    compatible to vasp.4.4
   GGA_COMPAT  = T    GGA compatible to vasp.4.4-vasp.4.6
   LMAXPAW     = -100 max onsite density
   LMAXMIX     =    2 max onsite mixed and CHGCAR
   VOSKOWN=      0    Vosko Wilk Nusair interpolation
   ROPT   =   -0.00050  -0.00050  -0.00050
 Ionic relaxation
   EDIFFG = 0.1E-03   stopping-criterion for IOM
   NSW    =      1    number of steps for IOM
   NBLOCK =      1;   KBLOCK =      1    inner block; outer block 
   IBRION =      2    ionic relax: 0-MD 1-quasi-New 2-CG
   NFREE  =      1    steps in history (QN), initial steepest desc. (CG)
   ISIF   =      2    stress and relaxation
   IWAVPR =     11    prediction:  0-non 1-charg 2-wave 3-comb
   ISYM   =      0    0-nonsym 1-usesym 2-fastsym
   LCORR  =      T    Harris-Foulkes like correction to forces

   POTIM  = 0.0150    time-step for ionic-motion
   TEIN   =    0.0    initial temperature
   TEBEG  =    0.0;   TEEND  =   0.0 temperature during run
   SMASS  =  -3.00    Nose mass-parameter (am)
   estimated Nose-frequenzy (Omega)   =  0.10E-29 period in steps = 0.42E+48 mass=  -0.234E-26a.u.
   SCALEE = 1.0000    scale energy and forces
   NPACO  =    256;   APACO  = 10.0  distance and # of slots for P.C.
   PSTRESS=    0.0 pullay stress

  Mass of Ions in am
   POMASS =  63.55 14.00  1.00
  Ionic Valenz
   ZVAL   =  11.00  5.00  1.00
  Atomic Wigner-Seitz radii
   RWIGS  =  -1.00 -1.00 -1.00
  virtual crystal weights 
   VCA    =   1.00  1.00  1.00
   NELECT =     535.0000    total number of electrons
   NUPDOWN=      -1.0000    fix difference up-down

 DOS related values:
   EMIN   =  10.00;   EMAX   =-10.00  energy-range for DOS
   EFERMI =   0.00;   METHOD = LEGACY      
   ISMEAR =     1;   SIGMA  =   0.10  broadening in eV -4-tet -1-fermi 0-gaus

 Electronic relaxation 2 (details)
   IALGO  =     68    algorithm
   LDIAG  =      T    sub-space diagonalisation (order eigenvalues)
   LSUBROT=      F    optimize rotation matrix (better conditioning)
   TURBO    =      0    0=normal 1=particle mesh
   IRESTART =      0    0=no restart 2=restart with 2 vectors
   NREBOOT  =      0    no. of reboots
   NMIN     =      0    reboot dimension
   EREF     =   0.00    reference energy to select bands
   IMIX   =      4    mixing-type and parameters
     AMIX     =   0.40;   BMIX     =  1.00
     AMIX_MAG =   1.60;   BMIX_MAG =  1.00
     AMIN     =   0.10
     WC   =   100.;   INIMIX=   1;  MIXPRE=   1;  MAXMIX= -45

 Intra band minimization:
   WEIMIN = 0.0010     energy-eigenvalue tresh-hold
   EBREAK =  0.77E-08  absolut break condition
   DEPER  =   0.30     relativ break condition  

   TIME   =   0.40     timestep for ELM

  volume/ion in A,a.u.               =      32.32       218.09
  Fermi-wavevector in a.u.,A,eV,Ry     =   1.125090  2.126112 17.222637  1.265828
  Thomas-Fermi vector in A             =   2.261766
 
 Write flags
   LWAVE        =      F    write WAVECAR
   LDOWNSAMPLE  =      F    k-point downsampling of WAVECAR
   LCHARG       =      F    write CHGCAR
   LVTOT        =      F    write LOCPOT, total local potential
   LVHAR        =      F    write LOCPOT, Hartree potential only
   LELF         =      F    write electronic localiz. function (ELF)
   LORBIT       =      0    0 simple, 1 ext, 2 COOP (PROOUT), +10 PAW based schemes


 Dipole corrections
   LMONO  =      F    monopole corrections only (constant potential shift)
   LDIPOL =      F    correct potential (dipole corrections)
   IDIPOL =      0    1-x, 2-y, 3-z, 4-all directions 
   EPSILON=  1.0000000 bulk dielectric constant

 Exchange correlation treatment:
   GGA     =    --    GGA type
   LEXCH   =     8    internal setting for exchange type
   LIBXC   =     F    Libxc                    
   VOSKOWN =     0    Vosko Wilk Nusair interpolation
   LHFCALC =     F    Hartree Fock is set to
   LHFONE  =     F    Hartree Fock one center treatment
   AEXX    =    0.0000 exact exchange contribution

 Linear response parameters
   LEPSILON=     F    determine dielectric tensor
   LRPA    =     F    only Hartree local field effects (RPA)
   LNABLA  =     F    use nabla operator in PAW spheres
   LVEL    =     F    velocity operator in full k-point grid
   CSHIFT  =0.1000    complex shift for real part using Kramers Kronig
   OMEGAMAX=  -1.0    maximum frequency
   DEG_THRESHOLD= 0.2000000E-02 threshold for treating states as degnerate
   RTIME   =   -0.100 relaxation time in fs
  (WPLASMAI=    0.000 imaginary part of plasma frequency in eV, 0.658/RTIME)
   DFIELD  = 0.0000000 0.0000000 0.0000000 field for delta impulse in time
 
  Optional k-point grid parameters
   LKPOINTS_OPT  =     F    use optional k-point grid
   KPOINTS_OPT_MODE=     1    mode for optional k-point grid
 
 Orbital magnetization related:
   ORBITALMAG=     F  switch on orbital magnetization
   LCHIMAG   =     F  perturbation theory with respect to B field
   DQ        =  0.001000  dq finite difference perturbation B field
   LLRAUG    =     F  two centre corrections for induced B field
   LBONE     =     F  B-component reconstruction in AE one-centre
   LVGVCALC  =     T  calculate vGv susceptibility
   LVGVAPPL  =     F  apply vGv susceptibility instead of pGv for G=0

 Random number generation:
   RANDOM_GENERATOR = DEFAULT
   PCG_SEED         = not used


--------------------------------------------------------------------------------------------------------


 conjugate gradient relaxation of ions
 charge density and potential will be updated during run
 non-spin polarized calculation
 RMM-DIIS sequential band-by-band and
  variant of blocked Davidson during initial phase
 perform sub-space diagonalisation
    before iterative eigenvector-optimisation
 modified Broyden-mixing scheme, WC =      100.0
 initial mixing is a Kerker type mixing with AMIX =  0.4000 and BMIX =      1.0000
 Hartree-type preconditioning will be used
 using additional bands           56
 real space projection scheme for non local part
 use partial core corrections
 calculate Harris-corrections to forces 
   (improved forces if not selfconsistent)
 use gradient corrections 
 use of overlap-Matrix (Vanderbilt PP)
 Methfessel and Paxton  Order N= 1 SIGMA  =   0.10


--------------------------------------------------------------------------------------------------------


  energy-cutoff  :      500.00
  volume of cell :     1648.22
      direct lattice vectors                 reciprocal lattice vectors
    10.118501948  0.000000000  0.000000000     0.098828859  0.057058868 -0.000000000
    -5.059250974  8.762879736  0.000000000     0.000000000  0.114117736 -0.000000000
     0.000000000  0.000000000 18.588875051     0.000000000  0.000000000  0.053795617

  length of vectors
    10.118501948 10.118501948 18.588875051     0.114117736  0.114117736  0.053795617


 
 k-points in units of 2pi/SCALE and weight: K-Spacing Value to Generate K-Mesh: 0.03
   0.00000000  0.00000000  0.00000000       0.111
   0.03294295  0.01901962 -0.00000000       0.222
   0.00000000  0.03803925 -0.00000000       0.222
  -0.03294295  0.01901962 -0.00000000       0.222
   0.03294295  0.05705887 -0.00000000       0.222
 
 k-points in reciprocal lattice and weights: K-Spacing Value to Generate K-Mesh: 0.03
   0.00000000  0.00000000  0.00000000       0.111
   0.33333333  0.00000000 -0.00000000       0.222
   0.00000000  0.33333333 -0.00000000       0.222
  -0.33333333  0.33333333 -0.00000000       0.222
   0.33333333  0.33333333 -0.00000000       0.222
 
 position of ions in fractional coordinates (direct lattice) 
   0.99895999  0.00227913  0.61194661
   0.00035605  0.25069285  0.61520217
   0.99122698  0.49622431  0.60978119
   0.99601494  0.74998253  0.61129381
   0.24412919  0.00583454  0.61765191
   0.25063443  0.25247159  0.61191696
   0.25490390  0.49620421  0.60980535
   0.25220411  0.75440494  0.60777348
   0.51173854  0.00583831  0.61761219
   0.50348135  0.25663123  0.61152381
   0.50153166  0.50153566  0.61323699
   0.50392419  0.74997502  0.61129910
   0.75332191  0.00231454  0.61194531
   0.75184164  0.25248356  0.61191434
   0.74997083  0.50151361  0.61323481
   0.75054999  0.75120694  0.61330030
   0.08332860  0.16668598  0.38888246
   0.08331514  0.41662990  0.38880445
   0.08329656  0.66668218  0.38877180
   0.08330462  0.91671532  0.38881953
   0.33332178  0.16673118  0.38887295
   0.33335814  0.41664609  0.38882354
   0.33338544  0.66668208  0.38877176
   0.33337433  0.91674882  0.38878326
   0.58340958  0.16673046  0.38887277
   0.58335647  0.41667189  0.38886969
   0.58338708  0.66668638  0.38882951
   0.58341121  0.91671535  0.38881939
   0.83335780  0.16668569  0.38888239
   0.83328938  0.41664654  0.38882351
   0.83329862  0.66668629  0.38883031
   0.83338123  0.91674161  0.38888554
   0.16661308  0.08355310  0.49996450
   0.16654186  0.33305635  0.49974738
   0.16666182  0.58332179  0.49944690
   0.16639967  0.83372620  0.49947210
   0.41681133  0.08362245  0.49982840
   0.41666252  0.33333757  0.49997636
   0.41711941  0.58348478  0.49964770
   0.41732591  0.83372593  0.49947213
   0.66694174  0.08355250  0.49996383
   0.66667955  0.33334117  0.49997378
   0.66664377  0.58336190  0.49992685
   0.66687610  0.83344421  0.49990338
   0.91672470  0.08344133  0.50002420
   0.91651580  0.33305636  0.49974707
   0.91636196  0.58348581  0.49964693
   0.91656565  0.83344218  0.49990356
   0.34642013  0.94271117  0.68215124
   0.36319937  0.97611362  0.73476667
   0.15801651  0.56627006  0.70590206
 
 position of ions in cartesian coordinates  (Angst):
  10.09644792  0.01997172 11.37539899
  -1.26471533  2.19679131 11.43591632
   7.51920879  4.34835394 11.33514642
   6.28382923  6.57200672 11.36326428
   2.44070334  0.05112735 11.48145415
   1.25872778  2.21237820 11.37484796
   0.06882398  4.34817779 11.33559539
  -1.26479614  6.61075975 11.29782523
   5.14848992  0.05116043 11.48071590
   3.79611525  2.24882862 11.36753969
   2.53735429  4.39489667 11.39938570
   1.30464603  6.57194090 11.36336254
   7.61077936  0.02028203 11.37537496
   6.33013334  2.21248309 11.37479913
   5.05129811  4.39470341 11.39934521
   3.79389707  6.58273607 11.40056266
  -0.00014558  1.46064916  7.22888739
  -1.26481078  3.65087768  7.22743740
  -2.53007608  5.84205573  7.22683032
  -3.79497493  8.03306611  7.22771773
   2.52918224  1.46104525  7.22871066
   1.26516791  3.65101956  7.22779215
   0.00044925  5.84205491  7.22682975
  -1.26481358  8.03335964  7.22704338
   5.05969973  1.46103894  7.22870726
   3.79464596  3.65124564  7.22865004
   2.53006958  5.84209254  7.22790315
   1.26535441  8.03306640  7.22771506
   7.58902783  1.46064664  7.22888614
   6.32372085  3.65102350  7.22779156
   5.05880048  5.84209174  7.22791810
   3.79454374  8.03329650  7.22894466
   1.26315865  0.73216579  9.29377756
   0.00013849  2.91853276  9.28974158
  -1.26480341  5.11157869  9.28415601
  -2.53431471  7.30584243  9.28462450
   3.79443930  0.73277346  9.29124763
   2.52956209  2.92099701  9.29399817
   1.26862761  5.11300695  9.28788859
   0.00468429  7.30584001  9.28462504
   6.32573829  0.73216048  9.29376514
   5.05934166  2.92102862  9.29395014
   3.79406200  5.11193021  9.29307771
   2.53118364  7.30337140  9.29264139
   8.85373008  0.73118633  9.29488734
   7.58875119  2.91853281  9.28973580
   6.32020909  5.11301597  9.28787442
   5.05767813  7.30335355  9.29264487
  -1.26415965  8.26086457 12.68042417
  -1.26337023  8.55356623 13.65848588
  -1.26601192  4.96215641 13.12192525
 


--------------------------------------------------------------------------------------------------------


 k-point   1 :   0.0000 0.0000 0.0000  plane waves:   42019
 k-point   2 :   0.3333 0.0000-0.0000  plane waves:   41852
 k-point   3 :   0.0000 0.3333-0.0000  plane waves:   41852
 k-point   4 :  -0.3333 0.3333-0.0000  plane waves:   41852
 k-point   5 :   0.3333 0.3333-0.0000  plane waves:   41826

 maximum and minimum number of plane-waves per node :      1777     1730

 maximum number of plane-waves:     42019
 maximum index in each direction: 
   IXMAX=   18   IYMAX=   18   IZMAX=   33
   IXMIN=  -18   IYMIN=  -18   IZMIN=  -33


 real space projection operators:
  total allocation   :      20040.98 KBytes
  max/ min on nodes  :       1105.47        673.14


 parallel 3D FFT for wavefunctions:
    minimum data exchange during FFTs selected (reduces bandwidth)
 parallel 3D FFT for charge:
    minimum data exchange during FFTs selected (reduces bandwidth)


 total amount of memory used by VASP MPI-rank0    51564. kBytes
=======================================================================

   base      :      30000. kBytes
   nonlr-proj:       3952. kBytes
   fftplans  :       2031. kBytes
   grid      :       3846. kBytes
   one-center:         46. kBytes
   wavefun   :      11689. kBytes
 
     INWAV:  cpu time      0.0000: real time      0.0000
 Broyden mixing: mesh for mixing (old mesh)
   NGX = 37   NGY = 37   NGZ = 67
  (NGX  =112   NGY  =112   NGZ  =216)
  gives a total of  91723 points

 initial charge density was supplied:
 charge density of overlapping atoms calculated
 number of electron     535.0000000 magnetization 
 keeping initial charge density in first step


--------------------------------------------------------------------------------------------------------


 Maximum index for non-local projection operator          380
 Maximum index for augmentation-charges          392 (set IRDMAX)


--------------------------------------------------------------------------------------------------------


 First call to EWALD:  gamma=   0.150
 Maximum number of real-space cells 4x 4x 2
 Maximum number of reciprocal cells 2x 2x 4

    FEWALD:  cpu time      0.0015: real time      0.0015


--------------------------------------- Ionic step        1  -------------------------------------------




--------------------------------------- Iteration      1(   1)  ---------------------------------------


    POTLOK:  cpu time      0.0237: real time      0.0365
    SETDIJ:  cpu time      0.0047: real time      0.0074
     EDDAV:  cpu time      1.9531: real time      2.0480
       DOS:  cpu time      0.0024: real time      0.0037
    --------------------------------------------
      LOOP:  cpu time      1.9839: real time      2.0956

 eigenvalue-minimisations  :  3240
 total energy-change (2. order) : 0.5109765E+04  (-0.2190824E+05)
 number of electron     535.0000000 magnetization 
 augmentation part      535.0000000 magnetization 

 Free energy of the ion-electron system (eV)
  ---------------------------------------------------
  alpha Z        PSCENC =      1044.42981019
  Ewald energy   TEWEN  =    153501.97003816
  -Hartree energ DENC   =   -217679.21670287
  -exchange      EXHF   =         0.00000000
  -V(xc)+E(xc)   XCENC  =      2210.09404161
  PAW double counting   =     59163.12046064   -64244.73594820
  entropy T*S    EENTRO =        -0.01460622
  eigenvalues    EBANDS =      4057.73593580
  atomic energy  EATOM  =     67056.38188117
  Solvation  Ediel_sol  =         0.00000000
  ---------------------------------------------------
  free energy    TOTEN  =      5109.76491027 eV

  energy without entropy =     5109.77951649  energy(sigma->0) =     5109.76977901


--------------------------------------------------------------------------------------------------------




--------------------------------------- Iteration      1(   2)  ---------------------------------------


     EDDAV:  cpu time      3.0690: real time      3.2707
       DOS:  cpu time      0.0009: real time      0.0010
    --------------------------------------------
      LOOP:  cpu time      3.0699: real time      3.2717

 eigenvalue-minimisations  :  3240
 total energy-change (2. order) :-0.4539954E+04  (-0.4385272E+04)
 number of electron     535.0000000 magnetization 
 augmentation part      535.0000000 magnetization 

 Free energy of the ion-electron system (eV)
  ---------------------------------------------------
  alpha Z        PSCENC =      1044.42981019
  Ewald energy   TEWEN  =    153501.97003816
  -Hartree energ DENC   =   -217679.21670287
  -exchange      EXHF   =         0.00000000
  -V(xc)+E(xc)   XCENC  =      2210.09404161
  PAW double counting   =     59163.12046064   -64244.73594820
  entropy T*S    EENTRO =         0.00564489
  eigenvalues    EBANDS =      -482.23831715
  atomic energy  EATOM  =     67056.38188117
  Solvation  Ediel_sol  =         0.00000000
  ---------------------------------------------------
  free energy    TOTEN  =       569.81090842 eV

  energy without entropy =      569.80526354  energy(sigma->0) =      569.80902680


--------------------------------------------------------------------------------------------------------




--------------------------------------- Iteration      1(   3)  ---------------------------------------


     EDDAV:  cpu time      1.8973: real time      1.9228
       DOS:  cpu time      0.0008: real time      0.0008
    --------------------------------------------
      LOOP:  cpu time      1.8981: real time      1.9236

 eigenvalue-minimisations  :  3304
 total energy-change (2. order) :-0.7205477E+03  (-0.6622315E+03)
 number of electron     535.0000000 magnetization 
 augmentation part      535.0000000 magnetization 

 Free energy of the ion-electron system (eV)
  ---------------------------------------------------
  alpha Z        PSCENC =      1044.42981019
  Ewald energy   TEWEN  =    153501.97003816
  -Hartree energ DENC   =   -217679.21670287
  -exchange      EXHF   =         0.00000000
  -V(xc)+E(xc)   XCENC  =      2210.09404161
  PAW double counting   =     59163.12046064   -64244.73594820
  entropy T*S    EENTRO =         0.00634874
  eigenvalues    EBANDS =     -1202.78667650
  atomic energy  EATOM  =     67056.38188117
  Solvation  Ediel_sol  =         0.00000000
  ---------------------------------------------------
  free energy    TOTEN  =      -150.73674707 eV

  energy without entropy =     -150.74309581  energy(sigma->0) =     -150.73886332


--------------------------------------------------------------------------------------------------------




--------------------------------------- Iteration      1(   4)  ---------------------------------------


     EDDAV:  cpu time      2.3212: real time      2.3354
       DOS:  cpu time      0.0009: real time      0.0009
    --------------------------------------------
      LOOP:  cpu time      2.3220: real time      2.3363

 eigenvalue-minimisations  :  4408
 total energy-change (2. order) :-0.6611117E+02  (-0.6133992E+02)
 number of electron     535.0000000 magnetization 
 augmentation part      535.0000000 magnetization 

 Free energy of the ion-electron system (eV)
  ---------------------------------------------------
  alpha Z        PSCENC =      1044.42981019
  Ewald energy   TEWEN  =    153501.97003816
  -Hartree energ DENC   =   -217679.21670287
  -exchange      EXHF   =         0.00000000
  -V(xc)+E(xc)   XCENC  =      2210.09404161
  PAW double counting   =     59163.12046064   -64244.73594820
  entropy T*S    EENTRO =        -0.02337085
  eigenvalues    EBANDS =     -1268.86812905
  atomic energy  EATOM  =     67056.38188117
  Solvation  Ediel_sol  =         0.00000000
  ---------------------------------------------------
  free energy    TOTEN  =      -216.84791921 eV

  energy without entropy =     -216.82454836  energy(sigma->0) =     -216.84012893


--------------------------------------------------------------------------------------------------------




--------------------------------------- Iteration      1(   5)  ---------------------------------------


     EDDAV:  cpu time      2.4929: real time      2.5089
       DOS:  cpu time      0.0008: real time      0.0008
    CHARGE:  cpu time      0.0529: real time      0.0531
    MIXING:  cpu time      0.0045: real time      0.0077
    --------------------------------------------
      LOOP:  cpu time      2.5511: real time      2.5705

 eigenvalue-minimisations  :  4816
 total energy-change (2. order) :-0.4201300E+01  (-0.4123443E+01)
 number of electron     534.9998928 magnetization 
 augmentation part      312.0169273 magnetization 

 Broyden mixing:
  rms(total) = 0.53496E+01    rms(broyden)= 0.53494E+01
  rms(prec ) = 0.58111E+01
  weight for this iteration     100.00

 Free energy of the ion-electron system (eV)
  ---------------------------------------------------
  alpha Z        PSCENC =      1044.42981019
  Ewald energy   TEWEN  =    153501.97003816
  -Hartree energ DENC   =   -217679.21670287
  -exchange      EXHF   =         0.00000000
  -V(xc)+E(xc)   XCENC  =      2210.09404161
  PAW double counting   =     59163.12046064   -64244.73594820
  entropy T*S    EENTRO =        -0.02207072
  eigenvalues    EBANDS =     -1273.07072876
  atomic energy  EATOM  =     67056.38188117
  Solvation  Ediel_sol  =         0.00000000
  ---------------------------------------------------
  free energy    TOTEN  =      -221.04921878 eV

  energy without entropy =     -221.02714807  energy(sigma->0) =     -221.04186188


--------------------------------------------------------------------------------------------------------




--------------------------------------- Iteration      1(   6)  ---------------------------------------


    POTLOK:  cpu time      0.0133: real time      0.0135
    SETDIJ:  cpu time      0.0017: real time      0.0017
    EDDIAG:  cpu time      0.3145: real time      0.3173
  RMM-DIIS:  cpu time      0.7206: real time      0.7257
    ORTHCH:  cpu time      0.0873: real time      0.0879
       DOS:  cpu time      0.0009: real time      0.0009
    CHARGE:  cpu time      0.0512: real time      0.0514
    MIXING:  cpu time      0.0006: real time      0.0110
    --------------------------------------------
      LOOP:  cpu time      1.1902: real time      1.2093

 eigenvalue-minimisations  :  3255
 total energy-change (2. order) : 0.2251462E+02  (-0.4958768E+02)
 number of electron     534.9998787 magnetization 
 augmentation part      353.2446815 magnetization 

 Broyden mixing:
  rms(total) = 0.32093E+01    rms(broyden)= 0.32087E+01
  rms(prec ) = 0.35473E+01
  weight for this iteration     100.00

 eigenvalues of (default mixing * dielectric matrix)
  average eigenvalue GAMMA=   0.6292
  0.6292

 Free energy of the ion-electron system (eV)
  ---------------------------------------------------
  alpha Z        PSCENC =      1044.42981019
  Ewald energy   TEWEN  =    153501.97003816
  -Hartree energ DENC   =   -216268.20333398
  -exchange      EXHF   =         0.00000000
  -V(xc)+E(xc)   XCENC  =      2145.43990691
  PAW double counting   =     59934.36597633   -64748.46437393
  entropy T*S    EENTRO =        -0.00312851
  eigenvalues    EBANDS =     -2864.45137240
  atomic energy  EATOM  =     67056.38188117
  Solvation  Ediel_sol  =         0.00000000
  ---------------------------------------------------
  free energy    TOTEN  =      -198.53459606 eV

  energy without entropy =     -198.53146755  energy(sigma->0) =     -198.53355322


--------------------------------------------------------------------------------------------------------




--------------------------------------- Iteration      1(   7)  ---------------------------------------


    POTLOK:  cpu time      0.0120: real time      0.0121
    SETDIJ:  cpu time      0.0018: real time      0.0018
    EDDIAG:  cpu time      0.3077: real time      0.3093
  RMM-DIIS:  cpu time      0.7257: real time      0.7309
    ORTHCH:  cpu time      0.0899: real time      0.0905
       DOS:  cpu time      0.0014: real time      0.0014
    CHARGE:  cpu time      0.0517: real time      0.0519
    MIXING:  cpu time      0.0005: real time      0.0005
    --------------------------------------------
      LOOP:  cpu time      1.1906: real time      1.1983

 eigenvalue-minimisations  :  3245
 total energy-change (2. order) : 0.1974437E+02  (-0.1094446E+02)
 number of electron     534.9998848 magnetization 
 augmentation part      336.5205170 magnetization 

 Broyden mixing:
  rms(total) = 0.71145E+00    rms(broyden)= 0.71059E+00
  rms(prec ) = 0.89320E+00
  weight for this iteration     100.00

 eigenvalues of (default mixing * dielectric matrix)
  average eigenvalue GAMMA=   0.6620
  0.7974  0.5266

 Free energy of the ion-electron system (eV)
  ---------------------------------------------------
  alpha Z        PSCENC =      1044.42981019
  Ewald energy   TEWEN  =    153501.97003816
  -Hartree energ DENC   =   -216873.46077750
  -exchange      EXHF   =         0.00000000
  -V(xc)+E(xc)   XCENC  =      2166.42105454
  PAW double counting   =     61257.84396138   -66306.76547757
  entropy T*S    EENTRO =        -0.05999832
  eigenvalues    EBANDS =     -2025.55071590
  atomic energy  EATOM  =     67056.38188117
  Solvation  Ediel_sol  =         0.00000000
  ---------------------------------------------------
  free energy    TOTEN  =      -178.79022386 eV

  energy without entropy =     -178.73022553  energy(sigma->0) =     -178.77022442


--------------------------------------------------------------------------------------------------------




--------------------------------------- Iteration      1(   8)  ---------------------------------------


    POTLOK:  cpu time      0.0116: real time      0.0119
    SETDIJ:  cpu time      0.0017: real time      0.0018
    EDDIAG:  cpu time      0.3090: real time      0.3110
  RMM-DIIS:  cpu time      0.7671: real time      0.7722
    ORTHCH:  cpu time      0.0896: real time      0.0901
       DOS:  cpu time      0.0009: real time      0.0009
    CHARGE:  cpu time      0.0512: real time      0.0514
    MIXING:  cpu time      0.0004: real time      0.0004
    --------------------------------------------
      LOOP:  cpu time      1.2316: real time      1.2397

 eigenvalue-minimisations  :  3492
 total energy-change (2. order) : 0.7366274E+00  (-0.7238939E+00)
 number of electron     534.9998838 magnetization 
 augmentation part      336.7844319 magnetization 

 Broyden mixing:
  rms(total) = 0.55263E+00    rms(broyden)= 0.55255E+00
  rms(prec ) = 0.63223E+00
  weight for this iteration     100.00

 eigenvalues of (default mixing * dielectric matrix)
  average eigenvalue GAMMA=   0.6785
  1.1294  0.5719  0.3341

 Free energy of the ion-electron system (eV)
  ---------------------------------------------------
  alpha Z        PSCENC =      1044.42981019
  Ewald energy   TEWEN  =    153501.97003816
  -Hartree energ DENC   =   -216873.41117536
  -exchange      EXHF   =         0.00000000
  -V(xc)+E(xc)   XCENC  =      2165.71217985
  PAW double counting   =     61836.21815635   -66925.54858642
  entropy T*S    EENTRO =        -0.06512854
  eigenvalues    EBANDS =     -1983.74077184
  atomic energy  EATOM  =     67056.38188117
  Solvation  Ediel_sol  =         0.00000000
  ---------------------------------------------------
  free energy    TOTEN  =      -178.05359645 eV

  energy without entropy =     -177.98846791  energy(sigma->0) =     -178.03188693


--------------------------------------------------------------------------------------------------------




--------------------------------------- Iteration      1(   9)  ---------------------------------------


    POTLOK:  cpu time      0.0119: real time      0.0120
    SETDIJ:  cpu time      0.0018: real time      0.0018
    EDDIAG:  cpu time      0.3097: real time      0.3115
  RMM-DIIS:  cpu time      0.7233: real time      0.7282
    ORTHCH:  cpu time      0.0883: real time      0.0889
       DOS:  cpu time      0.0009: real time      0.0009
    CHARGE:  cpu time      0.0513: real time      0.0515
    MIXING:  cpu time      0.0005: real time      0.0005
    --------------------------------------------
      LOOP:  cpu time      1.1877: real time      1.1953

 eigenvalue-minimisations  :  3280
 total energy-change (2. order) : 0.2795677E+00  (-0.2618677E+00)
 number of electron     534.9998845 magnetization 
 augmentation part      336.8029051 magnetization 

 Broyden mixing:
  rms(total) = 0.29871E+00    rms(broyden)= 0.29867E+00
  rms(prec ) = 0.33830E+00
  weight for this iteration     100.00

 eigenvalues of (default mixing * dielectric matrix)
  average eigenvalue GAMMA=   0.7703
  1.6277  0.5930  0.5279  0.3325

 Free energy of the ion-electron system (eV)
  ---------------------------------------------------
  alpha Z        PSCENC =      1044.42981019
  Ewald energy   TEWEN  =    153501.97003816
  -Hartree energ DENC   =   -216881.61983051
  -exchange      EXHF   =         0.00000000
  -V(xc)+E(xc)   XCENC  =      2164.79813049
  PAW double counting   =     62366.53822315   -67489.25987343
  entropy T*S    EENTRO =        -0.06837237
  eigenvalues    EBANDS =     -1940.94403559
  atomic energy  EATOM  =     67056.38188117
  Solvation  Ediel_sol  =         0.00000000
  ---------------------------------------------------
  free energy    TOTEN  =      -177.77402874 eV

  energy without entropy =     -177.70565637  energy(sigma->0) =     -177.75123795


--------------------------------------------------------------------------------------------------------




--------------------------------------- Iteration      1(  10)  ---------------------------------------


    POTLOK:  cpu time      0.0117: real time      0.0121
    SETDIJ:  cpu time      0.0017: real time      0.0017
    EDDIAG:  cpu time      0.3075: real time      0.3090
  RMM-DIIS:  cpu time      0.7579: real time      0.7631
    ORTHCH:  cpu time      0.0883: real time      0.0888
       DOS:  cpu time      0.0010: real time      0.0010
    CHARGE:  cpu time      0.0511: real time      0.0513
    MIXING:  cpu time      0.0010: real time      0.0049
    --------------------------------------------
      LOOP:  cpu time      1.2204: real time      1.2320

 eigenvalue-minimisations  :  3442
 total energy-change (2. order) : 0.1134893E+00  (-0.8430144E-01)
 number of electron     534.9998842 magnetization 
 augmentation part      336.7930206 magnetization 

 Broyden mixing:
  rms(total) = 0.19645E+00    rms(broyden)= 0.19642E+00
  rms(prec ) = 0.22160E+00
  weight for this iteration     100.00

 eigenvalues of (default mixing * dielectric matrix)
  average eigenvalue GAMMA=   0.8930
  1.9971  0.7986  0.7986  0.5732  0.2971

 Free energy of the ion-electron system (eV)
  ---------------------------------------------------
  alpha Z        PSCENC =      1044.42981019
  Ewald energy   TEWEN  =    153501.97003816
  -Hartree energ DENC   =   -216882.23023514
  -exchange      EXHF   =         0.00000000
  -V(xc)+E(xc)   XCENC  =      2163.60159730
  PAW double counting   =     62887.00786274   -68039.65440360
  entropy T*S    EENTRO =        -0.06745344
  eigenvalues    EBANDS =     -1909.09963679
  atomic energy  EATOM  =     67056.38188117
  Solvation  Ediel_sol  =         0.00000000
  ---------------------------------------------------
  free energy    TOTEN  =      -177.66053941 eV

  energy without entropy =     -177.59308597  energy(sigma->0) =     -177.63805493


--------------------------------------------------------------------------------------------------------




--------------------------------------- Iteration      1(  11)  ---------------------------------------


    POTLOK:  cpu time      0.0112: real time      0.0115
    SETDIJ:  cpu time      0.0021: real time      0.0021
    EDDIAG:  cpu time      0.3068: real time      0.3083
  RMM-DIIS:  cpu time      0.7285: real time      0.7335
    ORTHCH:  cpu time      0.0886: real time      0.0891
       DOS:  cpu time      0.0010: real time      0.0010
    CHARGE:  cpu time      0.0514: real time      0.0516
    MIXING:  cpu time      0.0005: real time      0.0005
    --------------------------------------------
      LOOP:  cpu time      1.1901: real time      1.1976

 eigenvalue-minimisations  :  3291
 total energy-change (2. order) : 0.1978739E-01  (-0.3141543E-01)
 number of electron     534.9998841 magnetization 
 augmentation part      337.0076058 magnetization 

 Broyden mixing:
  rms(total) = 0.14118E+00    rms(broyden)= 0.14116E+00
  rms(prec ) = 0.17138E+00
  weight for this iteration     100.00

 eigenvalues of (default mixing * dielectric matrix)
  average eigenvalue GAMMA=   0.9082
  2.3409  0.9481  0.9481  0.5650  0.3514  0.2956

 Free energy of the ion-electron system (eV)
  ---------------------------------------------------
  alpha Z        PSCENC =      1044.42981019
  Ewald energy   TEWEN  =    153501.97003816
  -Hartree energ DENC   =   -216882.09405621
  -exchange      EXHF   =         0.00000000
  -V(xc)+E(xc)   XCENC  =      2162.53826700
  PAW double counting   =     63168.21616753   -68335.42944390
  entropy T*S    EENTRO =        -0.06595326
  eigenvalues    EBANDS =     -1893.58746270
  atomic energy  EATOM  =     67056.38188117
  Solvation  Ediel_sol  =         0.00000000
  ---------------------------------------------------
  free energy    TOTEN  =      -177.64075202 eV

  energy without entropy =     -177.57479877  energy(sigma->0) =     -177.61876760


--------------------------------------------------------------------------------------------------------




--------------------------------------- Iteration      1(  12)  ---------------------------------------


    POTLOK:  cpu time      0.0115: real time      0.0118
    SETDIJ:  cpu time      0.0017: real time      0.0017
    EDDIAG:  cpu time      0.3061: real time      0.3076
  RMM-DIIS:  cpu time      0.7273: real time      0.7322
    ORTHCH:  cpu time      0.0883: real time      0.0887
       DOS:  cpu time      0.0009: real time      0.0009
    CHARGE:  cpu time      0.0516: real time      0.0518
    MIXING:  cpu time      0.0005: real time      0.0005
    --------------------------------------------
      LOOP:  cpu time      1.1880: real time      1.1953

 eigenvalue-minimisations  :  3308
 total energy-change (2. order) : 0.2590274E-01  (-0.1955298E-01)
 number of electron     534.9998842 magnetization 
 augmentation part      337.1499726 magnetization 

 Broyden mixing:
  rms(total) = 0.70723E-01    rms(broyden)= 0.70704E-01
  rms(prec ) = 0.87099E-01
  weight for this iteration     100.00

 eigenvalues of (default mixing * dielectric matrix)
  average eigenvalue GAMMA=   0.8767
  2.1691  1.3559  0.6971  0.6971  0.5893  0.2948  0.3337

 Free energy of the ion-electron system (eV)
  ---------------------------------------------------
  alpha Z        PSCENC =      1044.42981019
  Ewald energy   TEWEN  =    153501.97003816
  -Hartree energ DENC   =   -216888.16675730
  -exchange      EXHF   =         0.00000000
  -V(xc)+E(xc)   XCENC  =      2161.83956290
  PAW double counting   =     63363.63819787   -68540.61526509
  entropy T*S    EENTRO =        -0.07019898
  eigenvalues    EBANDS =     -1877.02211819
  atomic energy  EATOM  =     67056.38188117
  Solvation  Ediel_sol  =         0.00000000
  ---------------------------------------------------
  free energy    TOTEN  =      -177.61484928 eV

  energy without entropy =     -177.54465031  energy(sigma->0) =     -177.59144962


--------------------------------------------------------------------------------------------------------




--------------------------------------- Iteration      1(  13)  ---------------------------------------


    POTLOK:  cpu time      0.0115: real time      0.0119
    SETDIJ:  cpu time      0.0017: real time      0.0017
    EDDIAG:  cpu time      0.3067: real time      0.3085
  RMM-DIIS:  cpu time      0.9473: real time      0.9537
    ORTHCH:  cpu time      0.0885: real time      0.0890
       DOS:  cpu time      0.0009: real time      0.0009
    CHARGE:  cpu time      0.0516: real time      0.0518
    MIXING:  cpu time      0.0006: real time      0.0006
    --------------------------------------------
      LOOP:  cpu time      1.4087: real time      1.4180

 eigenvalue-minimisations  :  4354
 total energy-change (2. order) : 0.5177681E-02  (-0.8291359E-02)
 number of electron     534.9998842 magnetization 
 augmentation part      337.1475390 magnetization 

 Broyden mixing:
  rms(total) = 0.35965E-01    rms(broyden)= 0.35955E-01
  rms(prec ) = 0.44854E-01
  weight for this iteration     100.00

 eigenvalues of (default mixing * dielectric matrix)
  average eigenvalue GAMMA=   0.8671
  1.8195  1.8195  0.8188  0.8188  0.5744  0.4420  0.2944  0.3498

 Free energy of the ion-electron system (eV)
  ---------------------------------------------------
  alpha Z        PSCENC =      1044.42981019
  Ewald energy   TEWEN  =    153501.97003816
  -Hartree energ DENC   =   -216896.98453357
  -exchange      EXHF   =         0.00000000
  -V(xc)+E(xc)   XCENC  =      2162.05153136
  PAW double counting   =     63343.92441596   -68519.83740266
  entropy T*S    EENTRO =        -0.06931496
  eigenvalues    EBANDS =     -1869.47609724
  atomic energy  EATOM  =     67056.38188117
  Solvation  Ediel_sol  =         0.00000000
  ---------------------------------------------------
  free energy    TOTEN  =      -177.60967160 eV

  energy without entropy =     -177.54035664  energy(sigma->0) =     -177.58656661


--------------------------------------------------------------------------------------------------------




--------------------------------------- Iteration      1(  14)  ---------------------------------------


    POTLOK:  cpu time      0.0117: real time      0.0120
    SETDIJ:  cpu time      0.0017: real time      0.0017
    EDDIAG:  cpu time      0.3070: real time      0.3085
  RMM-DIIS:  cpu time      0.7325: real time      0.7374
    ORTHCH:  cpu time      0.0892: real time      0.0897
       DOS:  cpu time      0.0009: real time      0.0009
    CHARGE:  cpu time      0.0515: real time      0.0517
    MIXING:  cpu time      0.0006: real time      0.0006
    --------------------------------------------
      LOOP:  cpu time      1.1951: real time      1.2025

 eigenvalue-minimisations  :  3330
 total energy-change (2. order) : 0.2859248E-02  (-0.1194853E-02)
 number of electron     534.9998842 magnetization 
 augmentation part      337.0755703 magnetization 

 Broyden mixing:
  rms(total) = 0.24272E-01    rms(broyden)= 0.24255E-01
  rms(prec ) = 0.33193E-01
  weight for this iteration     100.00

 eigenvalues of (default mixing * dielectric matrix)
  average eigenvalue GAMMA=   0.9593
  2.1627  2.1627  1.1100  0.7669  0.7669  0.5741  0.4556  0.2944  0.3405

 Free energy of the ion-electron system (eV)
  ---------------------------------------------------
  alpha Z        PSCENC =      1044.42981019
  Ewald energy   TEWEN  =    153501.97003816
  -Hartree energ DENC   =   -216909.27222486
  -exchange      EXHF   =         0.00000000
  -V(xc)+E(xc)   XCENC  =      2162.28412708
  PAW double counting   =     63318.74758876   -68493.66577314
  entropy T*S    EENTRO =        -0.06871905
  eigenvalues    EBANDS =     -1858.41354065
  atomic energy  EATOM  =     67056.38188117
  Solvation  Ediel_sol  =         0.00000000
  ---------------------------------------------------
  free energy    TOTEN  =      -177.60681235 eV

  energy without entropy =     -177.53809330  energy(sigma->0) =     -177.58390600


--------------------------------------------------------------------------------------------------------




--------------------------------------- Iteration      1(  15)  ---------------------------------------


    POTLOK:  cpu time      0.0117: real time      0.0120
    SETDIJ:  cpu time      0.0018: real time      0.0019
    EDDIAG:  cpu time      0.3107: real time      0.3121
  RMM-DIIS:  cpu time      0.7297: real time      0.7346
    ORTHCH:  cpu time      0.0898: real time      0.0903
       DOS:  cpu time      0.0009: real time      0.0009
    CHARGE:  cpu time      0.0516: real time      0.0518
    MIXING:  cpu time      0.0008: real time      0.0008
    --------------------------------------------
      LOOP:  cpu time      1.1970: real time      1.2044

 eigenvalue-minimisations  :  3319
 total energy-change (2. order) : 0.3037805E-02  (-0.5083131E-03)
 number of electron     534.9998842 magnetization 
 augmentation part      337.0447679 magnetization 

 Broyden mixing:
  rms(total) = 0.20325E-01    rms(broyden)= 0.20324E-01
  rms(prec ) = 0.26424E-01
  weight for this iteration     100.00

 eigenvalues of (default mixing * dielectric matrix)
  average eigenvalue GAMMA=   0.9857
  2.5247  2.1502  1.1939  0.8197  0.8197  0.7595  0.5890  0.2942  0.3347  0.3719

 Free energy of the ion-electron system (eV)
  ---------------------------------------------------
  alpha Z        PSCENC =      1044.42981019
  Ewald energy   TEWEN  =    153501.97003816
  -Hartree energ DENC   =   -216927.18039776
  -exchange      EXHF   =         0.00000000
  -V(xc)+E(xc)   XCENC  =      2162.34246691
  PAW double counting   =     63320.39609361   -68495.66885560
  entropy T*S    EENTRO =        -0.06888386
  eigenvalues    EBANDS =     -1840.20592736
  atomic energy  EATOM  =     67056.38188117
  Solvation  Ediel_sol  =         0.00000000
  ---------------------------------------------------
  free energy    TOTEN  =      -177.60377455 eV

  energy without entropy =     -177.53489069  energy(sigma->0) =     -177.58081326


--------------------------------------------------------------------------------------------------------




--------------------------------------- Iteration      1(  16)  ---------------------------------------


    POTLOK:  cpu time      0.0118: real time      0.0122
    SETDIJ:  cpu time      0.0018: real time      0.0018
    EDDIAG:  cpu time      0.3084: real time      0.3098
  RMM-DIIS:  cpu time      0.7249: real time      0.7297
    ORTHCH:  cpu time      0.0892: real time      0.0897
       DOS:  cpu time      0.0011: real time      0.0012
    CHARGE:  cpu time      0.0513: real time      0.0515
    MIXING:  cpu time      0.0006: real time      0.0006
    --------------------------------------------
      LOOP:  cpu time      1.1893: real time      1.1965

 eigenvalue-minimisations  :  3284
 total energy-change (2. order) : 0.1685925E-02  (-0.3488977E-03)
 number of electron     534.9998842 magnetization 
 augmentation part      337.0872182 magnetization 

 Broyden mixing:
  rms(total) = 0.93639E-02    rms(broyden)= 0.93589E-02
  rms(prec ) = 0.13837E-01
  weight for this iteration     100.00

 eigenvalues of (default mixing * dielectric matrix)
  average eigenvalue GAMMA=   0.9494
  2.6338  2.1202  1.1367  0.9280  0.8021  0.8021  0.5861  0.4519  0.2941  0.3595
  0.3291

 Free energy of the ion-electron system (eV)
  ---------------------------------------------------
  alpha Z        PSCENC =      1044.42981019
  Ewald energy   TEWEN  =    153501.97003816
  -Hartree energ DENC   =   -216936.85658604
  -exchange      EXHF   =         0.00000000
  -V(xc)+E(xc)   XCENC  =      2162.23132360
  PAW double counting   =     63337.65172404   -68513.75735632
  entropy T*S    EENTRO =        -0.06912968
  eigenvalues    EBANDS =     -1829.58379372
  atomic energy  EATOM  =     67056.38188117
  Solvation  Ediel_sol  =         0.00000000
  ---------------------------------------------------
  free energy    TOTEN  =      -177.60208862 eV

  energy without entropy =     -177.53295894  energy(sigma->0) =     -177.57904539


--------------------------------------------------------------------------------------------------------




--------------------------------------- Iteration      1(  17)  ---------------------------------------


    POTLOK:  cpu time      0.0120: real time      0.0123
    SETDIJ:  cpu time      0.0017: real time      0.0017
    EDDIAG:  cpu time      0.3096: real time      0.3114
  RMM-DIIS:  cpu time      0.7533: real time      0.7580
    ORTHCH:  cpu time      0.0888: real time      0.0896
       DOS:  cpu time      0.0009: real time      0.0009
    CHARGE:  cpu time      0.0516: real time      0.0518
    MIXING:  cpu time      0.0007: real time      0.0007
    --------------------------------------------
      LOOP:  cpu time      1.2186: real time      1.2265

 eigenvalue-minimisations  :  3405
 total energy-change (2. order) : 0.6309697E-04  (-0.1430585E-03)
 number of electron     534.9998842 magnetization 
 augmentation part      337.0866554 magnetization 

 Broyden mixing:
  rms(total) = 0.72848E-02    rms(broyden)= 0.72839E-02
  rms(prec ) = 0.11213E-01
  weight for this iteration     100.00

 eigenvalues of (default mixing * dielectric matrix)
  average eigenvalue GAMMA=   1.0006
  2.5525  2.5525  1.2744  1.2744  0.8150  0.8150  0.7892  0.5844  0.3870  0.2941
  0.3437  0.3248

 Free energy of the ion-electron system (eV)
  ---------------------------------------------------
  alpha Z        PSCENC =      1044.42981019
  Ewald energy   TEWEN  =    153501.97003816
  -Hartree energ DENC   =   -216941.01290044
  -exchange      EXHF   =         0.00000000
  -V(xc)+E(xc)   XCENC  =      2162.24362704
  PAW double counting   =     63333.14958929   -68509.09211140
  entropy T*S    EENTRO =        -0.06910109
  eigenvalues    EBANDS =     -1825.60285845
  atomic energy  EATOM  =     67056.38188117
  Solvation  Ediel_sol  =         0.00000000
  ---------------------------------------------------
  free energy    TOTEN  =      -177.60202552 eV

  energy without entropy =     -177.53292444  energy(sigma->0) =     -177.57899183


--------------------------------------------------------------------------------------------------------




--------------------------------------- Iteration      1(  18)  ---------------------------------------


    POTLOK:  cpu time      0.0121: real time      0.0124
    SETDIJ:  cpu time      0.0017: real time      0.0017
    EDDIAG:  cpu time      0.3063: real time      0.3078
  RMM-DIIS:  cpu time      0.7248: real time      0.7297
    ORTHCH:  cpu time      0.0887: real time      0.0892
       DOS:  cpu time      0.0010: real time      0.0010
    CHARGE:  cpu time      0.0513: real time      0.0515
    MIXING:  cpu time      0.0007: real time      0.0007
    --------------------------------------------
      LOOP:  cpu time      1.1866: real time      1.1940

 eigenvalue-minimisations  :  3292
 total energy-change (2. order) :-0.4276148E-03  (-0.9407379E-04)
 number of electron     534.9998842 magnetization 
 augmentation part      337.0754292 magnetization 

 Broyden mixing:
  rms(total) = 0.60748E-02    rms(broyden)= 0.60740E-02
  rms(prec ) = 0.86158E-02
  weight for this iteration     100.00

 eigenvalues of (default mixing * dielectric matrix)
  average eigenvalue GAMMA=   1.0670
[...]
 total charge-density along one line
 
 pseudopotential strength for first ion, spin component:           1
 -8.560  -0.001  -0.000   0.001  -0.002  -0.443   0.001   0.000
 -0.001  -8.526  -0.001   0.001   0.005   0.001  -0.472   0.001
 -0.000  -0.001  -8.524  -0.002   0.000   0.000   0.001  -0.474
  0.001   0.001  -0.002  -8.522  -0.002  -0.001  -0.001   0.001
 -0.002   0.005   0.000  -0.002  -8.563   0.001  -0.004  -0.000
 -0.443   0.001   0.000  -0.001   0.001   7.296  -0.000   0.000
  0.001  -0.472   0.001  -0.001  -0.004  -0.000   7.316  -0.000
  0.000   0.001  -0.474   0.001  -0.000   0.000  -0.000   7.318
 -0.001  -0.001   0.001  -0.474   0.001   0.000   0.000  -0.001
  0.001  -0.004  -0.000   0.001  -0.441  -0.001   0.003  -0.000
  0.000   0.001  -0.008   0.000  -0.000  -0.000  -0.001   0.002
  0.000   0.001  -0.014   0.000  -0.000  -0.001  -0.001   0.004
 -0.000   0.008   0.001   0.000   0.001   0.000  -0.009  -0.001
  0.000  -0.001   0.007  -0.001   0.000  -0.000   0.001  -0.008
 -0.001   0.000   0.000   0.008  -0.000   0.001  -0.000  -0.000
 -0.001   0.009   0.001   0.000   0.001   0.000  -0.011  -0.001
  0.000  -0.001   0.007  -0.001   0.000  -0.000   0.001  -0.010
 -0.001   0.000   0.000   0.009  -0.001   0.001  -0.000  -0.000
 total augmentation occupancy for first ion, spin component:           1
  1.910   0.002   0.002   0.002  -0.003  -0.014  -0.000  -0.000  -0.004   0.001  -0.002  -0.000  -0.000   0.001   0.005   0.000
  0.002   1.924   0.000   0.000   0.004  -0.000  -0.032  -0.000  -0.001  -0.005  -0.001  -0.000  -0.008   0.001   0.001   0.008
  0.002   0.000   1.921  -0.002   0.001  -0.000  -0.000  -0.025   0.001  -0.002  -0.008   0.016   0.002  -0.054  -0.002   0.000
  0.002   0.000  -0.002   1.931   0.002  -0.004  -0.001   0.001  -0.032   0.001   0.004   0.001   0.001  -0.005  -0.003  -0.000
 -0.003   0.004   0.001   0.002   1.909   0.001  -0.005  -0.002   0.001  -0.011   0.004  -0.002   0.006   0.002   0.000  -0.000
 -0.014  -0.000  -0.000  -0.004   0.001   0.016   0.000   0.000  -0.001  -0.000  -0.001   0.000  -0.001  -0.000   0.005   0.000
 -0.000  -0.032  -0.000  -0.001  -0.005   0.000   0.010  -0.000   0.000  -0.000   0.000  -0.000  -0.016   0.000  -0.000   0.001
 -0.000  -0.000  -0.025   0.001  -0.002   0.000  -0.000   0.014  -0.000  -0.000  -0.050   0.003  -0.001  -0.023  -0.000   0.000
 -0.004  -0.001   0.001  -0.032   0.001  -0.001   0.000  -0.000   0.012   0.000   0.001  -0.000   0.000   0.001  -0.018  -0.000
  0.001  -0.005  -0.002   0.001  -0.011  -0.000  -0.000  -0.000   0.000   0.016   0.007  -0.000   0.003  -0.001   0.001  -0.000
 -0.002  -0.001  -0.008   0.004   0.004  -0.001   0.000  -0.050   0.001   0.007   1.774  -0.145   0.004  -0.128   0.000  -0.000
 -0.000  -0.000   0.016   0.001  -0.002   0.000  -0.000   0.003  -0.000  -0.000  -0.145   0.018  -0.000   0.023  -0.000   0.000
 -0.000  -0.008   0.002   0.001   0.006  -0.001  -0.016  -0.001   0.000   0.003   0.004  -0.000   0.224   0.003   0.002  -0.014
  0.001   0.001  -0.054  -0.005   0.002  -0.000   0.000  -0.023   0.001  -0.001  -0.128   0.023   0.003   0.130  -0.003  -0.000
  0.005   0.001  -0.002  -0.003   0.000   0.005  -0.000  -0.000  -0.018   0.001   0.000  -0.000   0.002  -0.003   0.239  -0.000
  0.000   0.008   0.000  -0.000  -0.000   0.000   0.001   0.000  -0.000  -0.000  -0.000   0.000  -0.014  -0.000  -0.000   0.001
 -0.000  -0.000   0.012   0.000   0.000   0.000  -0.000   0.001  -0.000   0.000   0.019  -0.002  -0.000  -0.009  -0.000   0.000
 -0.001   0.000  -0.000   0.008   0.000  -0.000  -0.000   0.000   0.001  -0.000  -0.000   0.000  -0.000  -0.000  -0.014   0.000


------------------------ aborting loop because EDIFF is reached ----------------------------------------


    CHARGE:  cpu time      0.0510: real time      0.0514
    FORLOC:  cpu time      0.0033: real time      0.0033
    FORNL :  cpu time      0.2436: real time      0.2454
    STRESS:  cpu time      0.7251: real time      0.7288
    FORCOR:  cpu time      0.0140: real time      0.0142
    FORHAR:  cpu time      0.0052: real time      0.0054
    MIXING:  cpu time      0.0015: real time      0.0015
    OFIELD:  cpu time      0.0000: real time      0.0000

  FORCE on cell =-STRESS in cart. coord.  units (eV):
  Direction    XX          YY          ZZ          XY          YZ          ZX
  --------------------------------------------------------------------------------------
  Alpha Z  1044.42981  1044.42981  1044.42981
  Ewald  189047.45687188912.36271************     0.05513   -16.52318    -0.09439
  Hartree206045.09393205971.26085************     0.03737   -14.75209    -0.10555
  E(xc)   -3108.57508 -3108.72470 -3116.42877     0.00036     0.08898     0.00036
  Local  ************************413628.90888    -0.11819    33.53605     0.20999
  n-local -1032.89666 -1035.57508 -1060.94582    -0.00013    -0.95322    -0.00104
  augment  4532.69605  4533.98998  4568.75247     0.02384     0.72104    -0.00023
  Kinetic  4407.77631  4407.30167  4443.86746    -0.00227    -3.37706    -0.01225
  Fock        0.00000     0.00000     0.00000     0.00000     0.00000     0.00000
  -------------------------------------------------------------------------------------
  Total       4.15273     1.26100     1.98140    -0.00388    -1.25947    -0.00311
  in kB       4.03671     1.22578     1.92605    -0.00377    -1.22429    -0.00302
  external pressure =        2.40 kB  Pullay stress =        0.00 kB


 VOLUME and BASIS-vectors are now :
 -----------------------------------------------------------------------------
  energy-cutoff  :      500.00
  volume of cell :     1648.22
      direct lattice vectors                 reciprocal lattice vectors
    10.118501948  0.000000000  0.000000000     0.098828859  0.057058868 -0.000000000
    -5.059250974  8.762879736  0.000000000     0.000000000  0.114117736 -0.000000000
     0.000000000  0.000000000 18.588875051     0.000000000  0.000000000  0.053795617

  length of vectors
    10.118501948 10.118501948 18.588875051     0.114117736  0.114117736  0.053795617


 FORCES acting on ions
    electron-ion (+dipol)            ewald-force                    non-local-force                 convergence-correction
 -----------------------------------------------------------------------------------------------
   0.201E+02 0.401E+01 -.256E+04   -.203E+02 -.396E+01 0.256E+04   0.115E+00 -.537E-01 0.157E+01   -.105E-03 0.456E-04 -.782E-03
   -.663E-01 -.203E+02 -.263E+04   0.654E-01 0.193E+02 0.263E+04   0.148E-03 0.101E+01 0.252E+01   -.403E-05 -.174E-03 -.122E-02
   -.469E+02 -.210E+02 -.254E+04   0.456E+02 0.204E+02 0.253E+04   0.224E+01 0.102E+01 0.207E+01   0.188E-03 -.745E-04 -.114E-02
   -.207E+00 0.190E+02 -.255E+04   -.166E+01 -.200E+02 0.255E+04   0.187E+01 0.971E+00 0.305E+01   -.787E-04 0.159E-03 -.993E-03
   0.920E+02 -.344E+02 -.250E+04   -.924E+02 0.351E+02 0.250E+04   0.458E+00 -.679E+00 -.271E+01   -.385E-03 0.223E-03 -.287E-03
   0.138E+02 -.129E+02 -.256E+04   -.141E+02 0.132E+02 0.256E+04   0.252E+00 -.370E+00 0.160E+01   -.389E-03 -.251E-03 -.849E-03
   0.466E+02 -.208E+02 -.254E+04   -.452E+02 0.203E+02 0.253E+04   -.224E+01 0.102E+01 0.207E+01   -.197E-03 -.691E-04 -.115E-02
   0.169E+00 0.118E+03 -.240E+04   -.167E+00 -.120E+03 0.240E+04   -.254E-02 0.135E+01 0.323E+01   0.877E-05 -.335E-03 -.121E-02
   -.917E+02 -.340E+02 -.250E+04   0.921E+02 0.347E+02 0.250E+04   -.457E+00 -.682E+00 -.271E+01   0.383E-03 0.203E-03 -.296E-03
   0.109E+01 -.166E+02 -.253E+04   -.109E+01 0.195E+02 0.253E+04   -.171E-01 -.311E+01 0.280E+01   -.109E-04 -.183E-03 -.539E-03
   -.383E+01 -.972E+01 -.260E+04   0.390E+01 0.962E+01 0.260E+04   0.486E-01 0.992E-01 0.132E+01   -.368E-04 0.161E-03 -.450E-03
   0.231E+00 0.192E+02 -.255E+04   0.164E+01 -.202E+02 0.255E+04   -.188E+01 0.973E+00 0.305E+01   0.833E-04 0.159E-03 -.994E-03
   -.204E+02 0.410E+01 -.256E+04   0.206E+02 -.404E+01 0.256E+04   -.117E+00 -.562E-01 0.157E+01   0.108E-03 0.325E-04 -.800E-03
   -.147E+02 -.129E+02 -.256E+04   0.149E+02 0.132E+02 0.256E+04   -.239E+00 -.370E+00 0.159E+01   0.403E-03 -.238E-03 -.846E-03
   0.404E+01 -.105E+02 -.260E+04   -.410E+01 0.104E+02 0.260E+04   -.498E-01 0.109E+00 0.132E+01   0.451E-04 0.151E-03 -.445E-03
   -.243E+00 0.205E+01 -.260E+04   0.243E+00 -.211E+01 0.260E+04   0.317E-02 0.695E-01 0.151E+01   -.938E-05 0.339E-03 -.565E-03
   0.582E+00 0.641E+00 0.264E+04   -.465E+00 -.495E+00 -.264E+04   -.111E+00 -.161E+00 -.202E+01   -.183E-03 0.568E-04 0.652E-03
   -.331E-01 0.753E+00 0.265E+04   0.321E-01 -.908E+00 -.264E+04   0.985E-03 0.121E+00 -.179E+01   -.103E-04 -.800E-04 0.370E-03
   -.258E-01 0.143E+00 0.265E+04   0.159E+00 -.257E+00 -.265E+04   -.142E+00 0.900E-01 -.209E+01   -.958E-04 -.389E-03 0.240E-04
   0.373E+00 -.117E+01 0.265E+04   -.376E+00 0.145E+01 -.264E+04   -.112E-01 -.224E+00 -.175E+01   -.353E-03 0.706E-04 0.230E-03
   -.748E+00 0.816E+00 0.264E+04   0.502E+00 -.863E+00 -.264E+04   0.209E+00 0.413E-01 -.152E+01   -.539E-03 0.167E-03 0.160E-03
   0.170E+00 0.698E+00 0.265E+04   -.522E-02 -.618E+00 -.264E+04   -.138E+00 -.897E-01 -.199E+01   -.415E-03 0.111E-03 0.454E-03
   0.197E-01 0.176E+00 0.265E+04   -.153E+00 -.290E+00 -.265E+04   0.143E+00 0.902E-01 -.209E+01   0.109E-03 -.393E-03 0.216E-04
   0.273E-01 -.181E+01 0.265E+04   -.277E-01 0.190E+01 -.264E+04   0.412E-03 -.770E-01 -.174E+01   0.359E-05 -.361E-03 -.255E-03
   0.803E+00 0.874E+00 0.264E+04   -.555E+00 -.921E+00 -.264E+04   -.210E+00 0.413E-01 -.152E+01   0.556E-03 0.163E-03 0.159E-03
   0.133E+00 0.495E+00 0.264E+04   -.132E+00 -.377E+00 -.264E+04   -.199E-02 -.849E-01 -.134E+01   0.153E-04 -.844E-04 0.329E-03
   -.668E+00 -.550E+00 0.265E+04   0.991E+00 0.375E+00 -.264E+04   -.268E+00 0.168E+00 -.156E+01   -.384E-03 0.154E-03 0.436E-03
   -.422E+00 -.113E+01 0.265E+04   0.425E+00 0.142E+01 -.264E+04   0.122E-01 -.224E+00 -.175E+01   0.349E-03 0.794E-04 0.233E-03
   -.648E+00 0.678E+00 0.264E+04   0.532E+00 -.531E+00 -.264E+04   0.111E+00 -.162E+00 -.202E+01   0.168E-03 0.658E-04 0.635E-03
   -.255E+00 0.653E+00 0.265E+04   0.906E-01 -.572E+00 -.264E+04   0.139E+00 -.902E-01 -.199E+01   0.404E-03 0.958E-04 0.435E-03
   0.675E+00 -.581E+00 0.265E+04   -.998E+00 0.406E+00 -.264E+04   0.268E+00 0.168E+00 -.156E+01   0.382E-03 0.130E-03 0.407E-03
   0.336E-01 -.851E+00 0.264E+04   -.328E-01 0.526E+00 -.264E+04   -.136E-02 0.297E+00 -.103E+01   -.122E-04 0.256E-03 0.572E-03
   -.415E+01 0.275E+01 0.431E+02   0.498E+01 -.315E+01 -.421E+02   -.674E+00 0.276E+00 -.770E+00   -.430E-03 -.227E-04 -.433E-03
   0.132E+02 0.398E+01 0.428E+02   -.135E+02 -.358E+01 -.424E+02   0.148E+00 -.394E+00 -.303E+00   -.569E-03 0.881E-04 -.499E-03
   -.331E-01 0.987E+01 0.387E+02   0.341E-01 -.957E+01 -.374E+02   -.117E-02 -.155E+00 -.126E+01   -.791E-06 -.644E-03 -.986E-04
   0.400E+01 -.104E+02 0.520E+02   -.359E+01 0.104E+02 -.513E+02   -.454E+00 0.582E-01 -.668E+00   -.222E-03 -.990E-04 0.147E-03
   0.267E+00 0.104E+02 0.280E+02   -.267E+00 -.103E+02 -.283E+02   0.421E-04 -.958E-01 0.531E+00   -.909E-05 -.832E-04 0.102E-03
   0.581E+00 -.143E+01 0.446E+02   -.225E+00 0.110E+01 -.446E+02   -.356E+00 0.312E+00 0.122E+00   -.317E-03 -.101E-03 -.626E-03
   -.704E+00 -.161E+01 0.500E+02   0.494E+00 0.164E+01 -.498E+02   0.157E+00 0.983E-02 -.154E+00   -.401E-03 -.312E-04 -.564E-03
   -.390E+01 -.103E+02 0.522E+02   0.349E+01 0.103E+02 -.514E+02   0.455E+00 0.583E-01 -.669E+00   0.248E-03 -.993E-04 0.152E-03
   0.399E+01 0.280E+01 0.434E+02   -.481E+01 -.320E+01 -.424E+02   0.676E+00 0.278E+00 -.773E+00   0.431E-03 -.388E-04 -.451E-03
   -.436E+00 -.165E+01 0.451E+02   0.808E-01 0.132E+01 -.451E+02   0.356E+00 0.313E+00 0.121E+00   0.320E-03 -.957E-04 -.633E-03
   -.148E+00 -.184E+01 0.345E+02   0.147E+00 0.218E+01 -.348E+02   0.319E-02 -.302E+00 0.379E+00   -.109E-04 0.453E-03 -.701E-03
   -.360E+01 -.411E+00 0.416E+02   0.381E+01 0.479E+00 -.419E+02   -.178E+00 -.341E-01 0.366E+00   0.180E-03 0.223E-03 -.515E-03
   -.808E-01 -.847E+01 0.368E+02   0.799E-01 0.831E+01 -.373E+02   0.646E-03 0.207E+00 0.558E+00   0.123E-05 0.203E-03 -.664E-03
   -.135E+02 0.398E+01 0.429E+02   0.137E+02 -.358E+01 -.426E+02   -.151E+00 -.395E+00 -.305E+00   0.565E-03 0.831E-04 -.504E-03
   0.872E+00 -.184E+01 0.502E+02   -.661E+00 0.186E+01 -.499E+02   -.161E+00 0.104E-01 -.158E+00   0.410E-03 -.520E-04 -.553E-03
   0.354E+01 -.374E+00 0.415E+02   -.375E+01 0.443E+00 -.418E+02   0.179E+00 -.362E-01 0.367E+00   -.203E-03 0.231E-03 -.509E-03
   0.584E-01 0.375E+02 -.157E+04   -.754E-01 -.451E+02 0.156E+04   0.151E-01 0.764E+01 0.675E+01   0.321E-05 0.307E-03 0.847E-04
   -.431E-01 -.166E+02 -.344E+03   0.481E-01 0.184E+02 0.351E+03   -.559E-02 -.210E+01 -.684E+01   0.544E-06 0.999E-04 0.248E-03
   0.205E-02 0.318E+01 -.310E+03   -.187E-02 -.329E+01 0.309E+03   -.772E-05 -.619E-01 -.645E+00   -.597E-06 -.657E-05 -.353E-05
 -----------------------------------------------------------------------------------------------
   -.311E-02 -.680E+01 0.726E+01   0.154E-12 0.666E-13 0.966E-12   0.305E-02 0.680E+01 -.726E+01   -.668E-05 0.604E-03 -.137E-01
 
 
 POSITION                                       TOTAL-FORCE (eV/Angst)
 -----------------------------------------------------------------------------------
     10.09645      0.01997     11.37540        -0.026506     -0.001338      0.028746
     -1.26472      2.19679     11.43592        -0.000775      0.006709     -0.100696
      7.51921      4.34835     11.33515         0.878504      0.462802      0.877919
      6.28383      6.57201     11.36326         0.004119      0.013255      0.011236
      2.44070      0.05113     11.48145         0.091872      0.004169      0.128268
      1.25873      2.21238     11.37485        -0.007999     -0.075360      0.001447
      0.06882      4.34818     11.33560        -0.874124      0.462685      0.874589
     -1.26480      6.61076     11.29783        -0.000699     -0.313368      1.578607
      5.14849      0.05116     11.48072        -0.091255      0.002638      0.128572
      3.79612      2.24883     11.36754        -0.011117     -0.180419      0.134533
      2.53735      4.39490     11.39939         0.117615     -0.004734     -0.016238
      1.30465      6.57194     11.36336        -0.004642      0.012867      0.010923
      7.61078      0.02028     11.37537         0.028210     -0.002413      0.028501
      6.33013      2.21248     11.37480         0.014551     -0.075985      0.001941
      5.05130      4.39470     11.39935        -0.118043      0.001172     -0.016297
      3.79390      6.58274     11.40056         0.002723      0.005805      0.010275
     -0.00015      1.46065      7.22889         0.005728     -0.014062     -0.156274
     -1.26481      3.65088      7.22744         0.000047     -0.034350     -0.154667
     -2.53008      5.84206      7.22683        -0.009277     -0.024841     -0.228070
     -3.79497      8.03307      7.22772        -0.015047      0.061264     -0.198702
      2.52918      1.46105      7.22871        -0.037879     -0.005670     -0.164801
      1.26517      3.65102      7.22779         0.026432     -0.009683     -0.168005
      0.00045      5.84205      7.22683         0.009508     -0.024820     -0.227989
     -1.26481      8.03336      7.22704         0.000017      0.013536     -0.223329
      5.05970      1.46104      7.22871         0.038005     -0.006065     -0.164893
      3.79465      3.65125      7.22865        -0.001284      0.032818     -0.156731
      2.53007      5.84209      7.22790         0.054033     -0.007306     -0.144897
      1.26535      8.03307      7.22772         0.015365      0.061295     -0.198796
      7.58903      1.46065      7.22889        -0.005593     -0.014181     -0.156316
      6.32372      3.65102      7.22779        -0.025400     -0.009607     -0.168137
      5.05880      5.84209      7.22792        -0.053941     -0.007366     -0.144519
      3.79454      8.03330      7.22894        -0.000539     -0.027407     -0.135793
      1.26316      0.73217      9.29378         0.149238     -0.118353      0.241959
      0.00014      2.91853      9.28974        -0.105814      0.001899      0.068040
     -1.26480      5.11158      9.28416        -0.000153      0.135270      0.079454
     -2.53431      7.30584      9.28462        -0.043484      0.060904      0.077636
      3.79444      0.73277      9.29125        -0.000301     -0.053157      0.216636
      2.52956      2.92100      9.29400        -0.000433     -0.016151      0.105778
      1.26863      5.11301      9.28789        -0.052888      0.031437      0.096630
      0.00468      7.30584      9.28463         0.043339      0.060589      0.076888
      6.32574      0.73216      9.29377        -0.148713     -0.117958      0.240498
      5.05934      2.92103      9.29395         0.001154     -0.014934      0.103041
      3.79406      5.11193      9.29308         0.002407      0.038127      0.149366
      2.53118      7.30337      9.29264         0.030657      0.033551      0.124994
      8.85373      0.73119      9.29489        -0.000273      0.048714      0.082798
      7.58875      2.91853      9.28974         0.105960      0.001407      0.067317
      6.32021      5.11302      9.28787         0.050441      0.031909      0.095017
      5.05768      7.30335      9.29264        -0.031401      0.032747      0.125213
     -1.26416      8.26086     12.68042        -0.001918      0.041119     -1.266370
     -1.26337      8.55357     13.65849        -0.000602     -0.331568      0.198411
     -1.26601      4.96216     13.12193         0.000176     -0.167591     -1.773714
 -----------------------------------------------------------------------------------
    total drift:                               -0.000062      0.004547     -0.011233


--------------------------------------------------------------------------------------------------------



  FREE ENERGIE OF THE ION-ELECTRON SYSTEM (eV)
  ---------------------------------------------------
  free  energy   TOTEN  =      -177.60585345 eV

  energy  without entropy=     -177.53685373  energy(sigma->0) =     -177.58285354
 


--------------------------------------------------------------------------------------------------------


    POTLOK:  cpu time      0.0149: real time      0.0170


--------------------------------------------------------------------------------------------------------


 stress matrix after NEB project (eV)
      4.15273     -0.00388     -0.00311
     -0.00388      1.26100     -1.25947
     -0.00311     -1.25947      1.98140
  FORCES: max atom, RMS     1.781614    0.487742
  FORCE total and by dimension    3.483177    1.773714
  Stress total and by dimension    5.092527    4.152729


--------------------------------------------------------------------------------------------------------


     LOOP+:  cpu time     42.0884: real time     42.7608
    4ORBIT:  cpu time      0.0000: real time      0.0000

 total amount of memory used by VASP MPI-rank0    51564. kBytes
=======================================================================

   base      :      30000. kBytes
   nonlr-proj:       3952. kBytes
   fftplans  :       2031. kBytes
   grid      :       3846. kBytes
   one-center:         46. kBytes
   wavefun   :      11689. kBytes
 
  
  
 General timing and accounting informations for this job:
 ========================================================
  
                  Total CPU time used (sec):       54.942
                            User time (sec):       51.765
                          System time (sec):        3.177
                         Elapsed time (sec):       64.294
  
                   Maximum memory used (kb):      281432.
                   Average memory used (kb):          N/A
  
                          Minor page faults:        28006
                          Major page faults:         1883
                 Voluntary context switches:         1994
