<?xml version="1.0" encoding="ISO-8859-1"?>
<modeling>
 <generator>
  <i name="program" type="string">vasp </i>
  <i name="version" type="string">6.4.1  </i>
  <i name="subversion" type="string">05Apr23 (build Jun 16 2023 21:11:36) complex                          parallel </i>
  <i name="platform" type="string">LinuxIFC </i>
  <i name="date" type="string">2026 03 07 </i>
  <i name="time" type="string">16:56:59 </i>
 </generator>
 <incar>
  <i type="string" name="SYSTEM">Bulk Frequency (Finite Difference)</i>
  <i type="string" name="ALGO">F</i>
  <i type="int" name="NELM">   150</i>
  <i type="int" name="NELMIN">     6</i>
  <i type="int" name="IBRION">     2</i>
  <i name="EDIFF">      0.00001000</i>
  <i type="int" name="NSW">     1</i>
  <i type="int" name="ISIF">     2</i>
  <i type="int" name="ISYM">     0</i>
  <i name="ENCUT">    500.00000000</i>
  <i name="POTIM">      0.01500000</i>
  <i type="string" name="LREAL">Auto</i>
  <i type="int" name="ISMEAR">     1</i>
  <i name="SIGMA">      0.10000000</i>
  <i type="logical" name="LWAVE"> F  </i>
  <i type="logical" name="LCHARG"> F  </i>
 </incar>
 <primitive_cell>
  <structure name="primitive_cell" >
   <crystal>
    <varray name="basis" >
     <v>      10.11850195       0.00000000       0.00000000 </v>
     <v>      -5.05925097       8.76287974       0.00000000 </v>
     <v>       0.00000000       0.00000000      18.58887505 </v>
    </varray>
    <i name="volume">   1648.22379336 </i>
    <varray name="rec_basis" >
     <v>       0.09882886       0.05705887      -0.00000000 </v>
     <v>       0.00000000       0.11411774      -0.00000000 </v>
     <v>       0.00000000       0.00000000       0.05379562 </v>
    </varray>
   </crystal>
   <varray name="positions" >
    <v>       0.99895999       0.00227913       0.61194661 </v>
    <v>       0.00035605       0.25069285       0.61520217 </v>
    <v>       0.99122698       0.49622431       0.60978119 </v>
    <v>       0.99601494       0.74998253       0.61129381 </v>
    <v>       0.24412919       0.00583454       0.61765191 </v>
    <v>       0.25063443       0.25247159       0.61191696 </v>
    <v>       0.25490390       0.49620421       0.60980535 </v>
    <v>       0.25220411       0.75440494       0.60777348 </v>
    <v>       0.51173854       0.00583831       0.61761219 </v>
    <v>       0.50348135       0.25663123       0.61152381 </v>
    <v>       0.50153166       0.50153566       0.61323699 </v>
    <v>       0.50392419       0.74997502       0.61129910 </v>
    <v>       0.75332191       0.00231454       0.61194531 </v>
    <v>       0.75184164       0.25248356       0.61191434 </v>
    <v>       0.74997083       0.50151361       0.61323481 </v>
    <v>       0.75054999       0.75120694       0.61330030 </v>
    <v>       0.08332860       0.16668598       0.38888246 </v>
    <v>       0.08331514       0.41662990       0.38880445 </v>
    <v>       0.08329656       0.66668218       0.38877180 </v>
    <v>       0.08330462       0.91671532       0.38881953 </v>
    <v>       0.33332178       0.16673118       0.38887295 </v>
    <v>       0.33335814       0.41664609       0.38882354 </v>
    <v>       0.33338544       0.66668208       0.38877176 </v>
    <v>       0.33337433       0.91674882       0.38878326 </v>
    <v>       0.58340958       0.16673046       0.38887277 </v>
    <v>       0.58335647       0.41667189       0.38886969 </v>
    <v>       0.58338708       0.66668638       0.38882951 </v>
    <v>       0.58341121       0.91671535       0.38881939 </v>
    <v>       0.83335780       0.16668569       0.38888239 </v>
    <v>       0.83328938       0.41664654       0.38882351 </v>
    <v>       0.83329862       0.66668629       0.38883031 </v>
    <v>       0.83338123       0.91674161       0.38888554 </v>
    <v>       0.16661308       0.08355310       0.49996450 </v>
    <v>       0.16654186       0.33305635       0.49974738 </v>
    <v>       0.16666182       0.58332179       0.49944690 </v>
    <v>       0.16639967       0.83372620       0.49947210 </v>
    <v>       0.41681133       0.08362245       0.49982840 </v>
    <v>       0.41666252       0.33333757       0.49997636 </v>
    <v>       0.41711941       0.58348478       0.49964770 </v>
    <v>       0.41732591       0.83372593       0.49947213 </v>
    <v>       0.66694174       0.08355250       0.49996383 </v>
    <v>       0.66667955       0.33334117       0.49997378 </v>
    <v>       0.66664377       0.58336190       0.49992685 </v>
    <v>       0.66687610       0.83344421       0.49990338 </v>
    <v>       0.91672470       0.08344133       0.50002420 </v>
    <v>       0.91651580       0.33305636       0.49974707 </v>
    <v>       0.91636196       0.58348581       0.49964693 </v>
    <v>       0.91656565       0.83344218       0.49990356 </v>
    <v>       0.34642013       0.94271117       0.68215124 </v>
    <v>       0.36319937       0.97611362       0.73476667 </v>
    <v>       0.15801651       0.56627006       0.70590206 </v>
   </varray>
  </structure>
  <varray name="primitive_index" >
   <v type="int" >        1 </v>
   <v type="int" >        2 </v>
   <v type="int" >        3 </v>
   <v type="int" >        4 </v>
   <v type="int" >        5 </v>
   <v type="int" >        6 </v>
   <v type="int" >        7 </v>
   <v type="int" >        8 </v>
   <v type="int" >        9 </v>
   <v type="int" >       10 </v>
   <v type="int" >       11 </v>
   <v type="int" >       12 </v>
   <v type="int" >       13 </v>
   <v type="int" >       14 </v>
   <v type="int" >       15 </v>
   <v type="int" >       16 </v>
   <v type="int" >       17 </v>
   <v type="int" >       18 </v>
   <v type="int" >       19 </v>
   <v type="int" >       20 </v>
   <v type="int" >       21 </v>
   <v type="int" >       22 </v>
   <v type="int" >       23 </v>
   <v type="int" >       24 </v>
   <v type="int" >       25 </v>
   <v type="int" >       26 </v>
   <v type="int" >       27 </v>
   <v type="int" >       28 </v>
   <v type="int" >       29 </v>
   <v type="int" >       30 </v>
   <v type="int" >       31 </v>
   <v type="int" >       32 </v>
   <v type="int" >       33 </v>
   <v type="int" >       34 </v>
   <v type="int" >       35 </v>
   <v type="int" >       36 </v>
   <v type="int" >       37 </v>
   <v type="int" >       38 </v>
   <v type="int" >       39 </v>
   <v type="int" >       40 </v>
   <v type="int" >       41 </v>
   <v type="int" >       42 </v>
   <v type="int" >       43 </v>
   <v type="int" >       44 </v>
   <v type="int" >       45 </v>
   <v type="int" >       46 </v>
   <v type="int" >       47 </v>
   <v type="int" >       48 </v>
   <v type="int" >       49 </v>
   <v type="int" >       50 </v>
   <v type="int" >       51 </v>
  </varray>
 </primitive_cell>
 <kpoints>
  <generation param="Gamma">
   <v type="int" name="divisions">       3        3        1 </v>
   <v name="usershift">      0.00000000       0.00000000       0.00000000 </v>
   <v name="genvec1">      0.33333333       0.00000000       0.00000000 </v>
   <v name="genvec2">      0.00000000       0.33333333       0.00000000 </v>
   <v name="genvec3">      0.00000000       0.00000000       1.00000000 </v>
   <v name="shift">      0.00000000       0.00000000       0.00000000 </v>
  </generation>
  <varray name="kpointlist" >
   <v>       0.00000000       0.00000000       0.00000000 </v>
   <v>       0.33333333       0.00000000      -0.00000000 </v>
   <v>       0.00000000       0.33333333      -0.00000000 </v>
   <v>      -0.33333333       0.33333333      -0.00000000 </v>
   <v>       0.33333333       0.33333333      -0.00000000 </v>
  </varray>
  <varray name="weights" >
   <v>       0.11111111 </v>
   <v>       0.22222222 </v>
   <v>       0.22222222 </v>
   <v>       0.22222222 </v>
   <v>       0.22222222 </v>
  </varray>
 </kpoints>
 <parameters>
  <separator name="general" >
   <i type="string" name="SYSTEM">Bulk Frequency (Finite Difference)</i>
   <i type="logical" name="LCOMPAT"> F  </i>
  </separator>
  <separator name="electronic" >
   <i type="string" name="PREC">normal</i>
   <i name="ENMAX">    500.00000000</i>
   <i name="ENAUG">    627.11200000</i>
   <i name="EDIFF">      0.00001000</i>
   <i type="int" name="IALGO">    68</i>
   <i type="int" name="IWAVPR">    11</i>
   <i type="int" name="NBANDS">   324</i>
   <i type="int" name="NBANDSLOW">    -1</i>
   <i type="int" name="NBANDSHIGH">    -1</i>
   <i name="NELECT">    535.00000000</i>
   <i type="int" name="TURBO">     0</i>
   <i type="int" name="IRESTART">     0</i>
   <i type="int" name="NREBOOT">     0</i>
   <i type="int" name="NMIN">     0</i>
   <i name="EREF">      0.00000000</i>
   <separator name="electronic smearing" >
    <i type="int" name="ISMEAR">     1</i>
    <i name="SIGMA">      0.10000000</i>
    <i name="KSPACING">      0.50000000</i>
    <i type="logical" name="KGAMMA"> T  </i>
    <i type="logical" name="KBLOWUP"> T  </i>
   </separator>
   <separator name="electronic projectors" >
    <i type="logical" name="LREAL"> T  </i>
    <v name="ROPT">     -0.00050000     -0.00050000     -0.00050000</v>
    <i type="int" name="LMAXPAW">  -100</i>
    <i type="int" name="LMAXMIX">     2</i>
    <i type="logical" name="NLSPLINE"> F  </i>
   </separator>
   <separator name="electronic startup" >
    <i type="int" name="ISTART">     0</i>
    <i type="int" name="ICHARG">     2</i>
    <i type="int" name="INIWAV">     1</i>
   </separator>
   <separator name="electronic spin" >
    <i type="int" name="ISPIN">     1</i>
    <i type="logical" name="LNONCOLLINEAR"> F  </i>
    <v name="MAGMOM">      1.00000000      1.00000000      1.00000000      1.00000000      1.00000000      1.00000000      1.00000000      1.00000000      1.00000000      1.00000000      1.00000000      1.00000000      1.00000000      1.00000000      1.00000000      1.00000000      1.00000000      1.00000000      1.00000000      1.00000000
      1.00000000      1.00000000      1.00000000      1.00000000      1.00000000      1.00000000      1.00000000      1.00000000      1.00000000      1.00000000      1.00000000      1.00000000      1.00000000      1.00000000      1.00000000      1.00000000      1.00000000      1.00000000      1.00000000      1.00000000
      1.00000000      1.00000000      1.00000000      1.00000000      1.00000000      1.00000000      1.00000000      1.00000000      1.00000000      1.00000000      1.00000000</v>
    <i name="NUPDOWN">     -1.00000000</i>
    <i type="logical" name="LSORBIT"> F  </i>
    <v name="SAXIS">      0.00000000      0.00000000      1.00000000</v>
    <i type="logical" name="LSPIRAL"> F  </i>
    <v name="QSPIRAL">      0.00000000      0.00000000      0.00000000</v>
    <i type="logical" name="LZEROZ"> F  </i>
   </separator>
   <separator name="electronic exchange-correlation" >
    <i type="logical" name="LASPH"> F  </i>
    <i type="logical" name="LMETAGGA"> F  </i>
   </separator>
   <separator name="electronic convergence" >
    <i type="int" name="NELM">   150</i>
    <i type="int" name="NELMDL">    -5</i>
    <i type="int" name="NELMIN">     6</i>
    <i name="ENINI">    500.00000000</i>
    <separator name="electronic convergence detail" >
     <i type="logical" name="LDIAG"> T  </i>
     <i type="logical" name="LSUBROT"> F  </i>
     <i name="WEIMIN">      0.00100000</i>
     <i name="EBREAK">      0.00000001</i>
     <i name="DEPER">      0.30000000</i>
     <i type="int" name="NRMM">     4</i>
     <i name="TIME">      0.40000000</i>
    </separator>
   </separator>
   <separator name="electronic mixer" >
    <i name="AMIX">      0.40000000</i>
    <i name="BMIX">      1.00000000</i>
    <i name="AMIN">      0.10000000</i>
    <i name="AMIX_MAG">      1.60000000</i>
    <i name="BMIX_MAG">      1.00000000</i>
    <separator name="electronic mixer details" >
     <i type="int" name="IMIX">     4</i>
     <i type="logical" name="MIXFIRST"> F  </i>
     <i type="int" name="MAXMIX">   -45</i>
     <i name="WC">    100.00000000</i>
     <i type="int" name="INIMIX">     1</i>
     <i type="int" name="MIXPRE">     1</i>
     <i type="int" name="MREMOVE">     5</i>
    </separator>
   </separator>
   <separator name="electronic dipolcorrection" >
    <i type="logical" name="LDIPOL"> F  </i>
    <i type="logical" name="LMONO"> F  </i>
    <i type="int" name="IDIPOL">     0</i>
    <i name="EPSILON">      1.00000000</i>
    <v name="DIPOL">   -100.00000000   -100.00000000   -100.00000000</v>
    <i name="EFIELD">      0.00000000</i>
   </separator>
  </separator>
  <separator name="grids" >
   <i type="int" name="NGX">    56</i>
   <i type="int" name="NGY">    56</i>
   <i type="int" name="NGZ">   108</i>
   <i type="int" name="NGXF">   112</i>
   <i type="int" name="NGYF">   112</i>
   <i type="int" name="NGZF">   216</i>
   <i type="logical" name="ADDGRID"> F  </i>
  </separator>
  <separator name="ionic" >
   <i type="int" name="NSW">     1</i>
   <i type="int" name="IBRION">     2</i>
   <i type="int" name="MDALGO">     0</i>
   <i type="int" name="ISIF">     2</i>
   <i name="PSTRESS">      0.00000000</i>
   <i name="EDIFFG">      0.00010000</i>
   <i type="int" name="NFREE">     1</i>
   <i name="POTIM">      0.01500000</i>
   <i name="SMASS">     -3.00000000</i>
   <i name="SCALEE">      1.00000000</i>
  </separator>
  <separator name="ionic md" >
   <i name="TEBEG">      0.00010000</i>
   <i name="TEEND">      0.00010000</i>
   <i type="int" name="NBLOCK">     1</i>
   <i type="int" name="KBLOCK">     1</i>
   <i type="int" name="NPACO">   256</i>
   <i name="APACO">     10.00000000</i>
  </separator>
  <separator name="symmetry" >
   <i type="int" name="ISYM">     0</i>
   <i name="SYMPREC">      0.00001000</i>
  </separator>
  <separator name="dos" >
   <i type="int" name="LORBIT">     0</i>
   <v name="RWIGS">     -1.00000000     -1.00000000     -1.00000000</v>
   <i type="int" name="NEDOS">   301</i>
   <i name="EMIN">     10.00000000</i>
   <i name="EMAX">    -10.00000000</i>
   <i name="EFERMI">      0.00000000</i>
  </separator>
  <separator name="writing" >
   <i type="int" name="NWRITE">     2</i>
   <i type="logical" name="LWAVE"> F  </i>
   <i type="logical" name="LDOWNSAMPLE"> F  </i>
   <i type="logical" name="LCHARG"> F  </i>
   <i type="logical" name="LPARD"> F  </i>
   <i type="logical" name="LVTOT"> F  </i>
   <i type="logical" name="LVHAR"> F  </i>
   <i type="logical" name="LELF"> F  </i>
   <i type="logical" name="LOPTICS"> F  </i>
   <v name="STM">      0.00000000      0.00000000      0.00000000      0.00000000      0.00000000      0.00000000      0.00000000</v>
  </separator>
  <separator name="performance" >
   <i type="int" name="NPAR">     4</i>
   <i type="int" name="NSIM">     4</i>
   <i type="int" name="NBLK">    -1</i>
   <i type="logical" name="LPLANE"> T  </i>
   <i type="logical" name="LSCALAPACK"> T  </i>
   <i type="logical" name="LSCAAWARE"> F  </i>
   <i type="logical" name="LSCALU"> F  </i>
   <i type="logical" name="LASYNC"> F  </i>
   <i type="logical" name="LORBITALREAL"> F  </i>
  </separator>
  <separator name="miscellaneous" >
   <i type="int" name="IDIOT">     3</i>
   <i type="int" name="PHON_NSTRUCT">    -1</i>
   <i type="logical" name="LMUSIC"> F  </i>
   <v name="POMASS">     63.54600000     14.00100000      1.00000000</v>
   <v name="DARWINR">      0.00000000      0.00000000      0.00000000</v>
   <v name="DARWINV">      1.00000000      1.00000000      1.00000000</v>
   <i type="logical" name="LCORR"> T  </i>
  </separator>
  <i type="logical" name="GGA_COMPAT"> T  </i>
  <i type="logical" name="LBERRY"> F  </i>
  <i type="int" name="ICORELEVEL">     0</i>
  <i type="logical" name="LDAU"> F  </i>
  <i type="int" name="I_CONSTRAINED_M">     0</i>
  <separator name="electronic exchange-correlation" >
   <i type="string" name="GGA">--</i>
   <i type="int" name="VOSKOWN">     0</i>
   <i type="logical" name="LHFCALC"> F  </i>
   <i type="string" name="PRECFOCK"></i>
   <i type="logical" name="LSYMGRAD"> F  </i>
   <i type="logical" name="LHFONE"> F  </i>
   <i type="logical" name="LRHFCALC"> F  </i>
   <i type="logical" name="LTHOMAS"> F  </i>
   <i type="logical" name="LMODELHF"> F  </i>
   <i type="logical" name="LFOCKACE"> F  </i>
   <i name="ENCUT4O">     -1.00000000</i>
   <i type="int" name="EXXOEP">     0</i>
   <i type="int" name="FOURORBIT">     0</i>
   <i name="AEXX">      0.00000000</i>
   <i name="HFALPHA">      0.00000000</i>
   <i name="MCALPHA">      0.00000000</i>
   <i name="ALDAX">      1.00000000</i>
   <i name="AGGAX">      1.00000000</i>
   <i name="ALDAC">      1.00000000</i>
   <i name="AGGAC">      1.00000000</i>
   <i type="int" name="NKREDX">     1</i>
   <i type="int" name="NKREDY">     1</i>
   <i type="int" name="NKREDZ">     1</i>
   <i type="logical" name="SHIFTRED"> F  </i>
   <i type="logical" name="ODDONLY"> F  </i>
   <i type="logical" name="EVENONLY"> F  </i>
   <i type="int" name="LMAXFOCK">     0</i>
   <i type="int" name="NMAXFOCKAE">     0</i>
   <i type="logical" name="LFOCKAEDFT"> F  </i>
   <i name="HFSCREEN">      0.00000000</i>
   <i name="HFSCREENC">      0.00000000</i>
   <i type="int" name="NBANDSGWLOW">     0</i>
  </separator>
  <separator name="vdW DFT" >
   <i type="logical" name="LUSE_VDW"> F  </i>
   <i type="int" name="IVDW_NL">     1</i>
   <i type="logical" name="LSPIN_VDW"> F  </i>
   <i name="Zab_VDW">     -0.84910000</i>
   <i name="PARAM1">      0.12340000</i>
   <i name="PARAM2">      1.00000000</i>
   <i name="PARAM3">      0.00000000</i>
  </separator>
  <separator name="model GW" >
   <i type="int" name="MODEL_GW">     0</i>
   <i name="MODEL_EPS0">     19.39086816</i>
   <i name="MODEL_ALPHA">      1.00000000</i>
  </separator>
  <separator name="linear response parameters" >
   <i type="logical" name="LEPSILON"> F  </i>
   <i type="logical" name="LRPA"> F  </i>
   <i type="logical" name="LNABLA"> F  </i>
   <i type="logical" name="LVEL"> F  </i>
   <i name="CSHIFT">      0.10000000</i>
   <i name="OMEGAMAX">     -1.00000000</i>
   <i name="DEG_THRESHOLD">      0.00200000</i>
   <i name="RTIME">     -0.10000000</i>
   <i name="WPLASMAI">      0.00000000</i>
   <v name="DFIELD">      0.00000000      0.00000000      0.00000000</v>
   <v name="WPLASMA">      0.00000000      0.00000000      0.00000000      0.00000000      0.00000000      0.00000000      0.00000000      0.00000000      0.00000000</v>
  </separator>
  <separator name="orbital magnetization" >
   <i type="logical" name="NUCIND"> F  </i>
   <v name="MAGPOS">      0.00000000      0.00000000      0.00000000</v>
   <i type="logical" name="LNICSALL"> T  </i>
   <i type="logical" name="ORBITALMAG"> F  </i>
   <i type="logical" name="LMAGBLOCH"> F  </i>
   <i type="logical" name="LCHIMAG"> F  </i>
   <i type="logical" name="LGAUGE"> T  </i>
   <i type="int" name="MAGATOM">     0</i>
   <v name="MAGDIPOL">      0.00000000      0.00000000      0.00000000</v>
   <v name="AVECCONST">      0.00000000      0.00000000      0.00000000</v>
  </separator>
  <separator name="response functions" >
   <i type="logical" name="LALL_IN_ONE"> F  </i>
   <i type="int" name="IALL_IN_ONE">    -1</i>
   <i type="int" name="NBANDS_WAVE">    -1</i>
   <i type="logical" name="LFINITE_TEMPERATURE"> F  </i>
   <i type="logical" name="LADDER"> F  </i>
   <i type="logical" name="LRPAFORCE"> F  </i>
   <i type="logical" name="LFXC"> F  </i>
   <i type="logical" name="LHARTREE"> T  </i>
   <i type="int" name="IBSE">     0</i>
   <v type="int" name="KPOINT">    -1     0     0     0</v>
   <i type="logical" name="LTCTC"> F  </i>
   <i type="logical" name="LTCTE"> F  </i>
   <i type="logical" name="LTETE"> F  </i>
   <i type="logical" name="LTRIPLET"> F  </i>
   <i type="logical" name="LFXCEPS"> F  </i>
   <i type="logical" name="LFXHEG"> F  </i>
   <i type="int" name="NATURALO">     2</i>
   <i type="logical" name="LHOLEGF"> F  </i>
   <i type="logical" name="L2ORDER"> F  </i>
   <i type="logical" name="LDMP1"> F  </i>
   <i type="logical" name="LMP2LT"> F  </i>
   <i type="logical" name="LSMP2LT"> F  </i>
   <i type="logical" name="LGWLF"> F  </i>
   <i name="ENCUTGW">     -1.60000002</i>
   <i name="ENCUTGWSOFT">     -1.60000002</i>
   <i name="ENCUTLF">     -1.00000000</i>
   <i type="logical" name="LESF_SPLINES"> F  </i>
   <i type="int" name="LMAXMP2">    -1</i>
   <i name="SCISSOR">      0.00000000</i>
   <i type="int" name="NOMEGA">     0</i>
   <i type="int" name="NOMEGAR">     0</i>
   <i type="int" name="NBANDSGW">    -1</i>
   <i type="int" name="NBANDSO">    -1</i>
   <i type="int" name="NBANDSV">    -1</i>
   <i type="int" name="NELMGW">     1</i>
   <i type="int" name="NELMHF">     1</i>
   <i type="int" name="DIM">     3</i>
   <i type="int" name="IESPILON">     4</i>
   <i type="int" name="ANTIRES">     0</i>
   <i name="OMEGAMAX">    -30.00000000</i>
   <i name="OMEGAMIN">    -30.00000000</i>
   <i name="OMEGATL">   -200.00000000</i>
   <i type="int" name="OMEGAGRID">     0</i>
   <i name="CSHIFT">     -0.10000000</i>
   <i type="logical" name="LSELFENERGY"> F  </i>
   <i type="logical" name="LSPECTRAL"> F  </i>
   <i type="logical" name="LSPECTRALGW"> F  </i>
   <i type="logical" name="LSINGLES"> F  </i>
   <i type="logical" name="LFERMIGW"> F  </i>
   <i type="logical" name="ODDONLYGW"> F  </i>
   <i type="logical" name="EVENONLYGW"> F  </i>
   <i type="int" name="NKREDLFX">     1</i>
   <i type="int" name="NKREDLFY">     1</i>
   <i type="int" name="NKREDLFZ">     1</i>
   <i type="int" name="MAXMEM">  2800</i>
   <i type="int" name="TELESCOPE">     0</i>
   <i type="int" name="NTAUPAR">    -1</i>
   <i type="int" name="NOMEGAPAR">    -1</i>
   <i name="DAMP_NEWTON">      0.80000001</i>
   <i name="LAMBDA">      1.00000000</i>
  </separator>
  <separator name="External order field" >
   <i name="OFIELD_KAPPA">      0.00000000</i>
   <v name="OFIELD_K">      0.00000000      0.00000000      0.00000000</v>
   <i name="OFIELD_Q6_NEAR">      0.00000000</i>
   <i name="OFIELD_Q6_FAR">      0.00000000</i>
   <i name="OFIELD_A">      0.00000000</i>
  </separator>
  <separator name="optional k-points parameters" >
   <i type="int" name="KPOINTS_OPT_MODE">     1</i>
   <i type="logical" name="LKPOINTS_OPT"> F  </i>
  </separator>
  <separator name="solvation model" >
   <i type="logical" name="LSOL"> F  </i>
  </separator>
 </parameters>
 <atominfo>
  <atoms>      51 </atoms>
  <types>       3 </types>
  <array name="atoms" >
   <dimension dim="1">ion</dimension>
   <field type="string">element</field>
   <field type="int">atomtype</field>
   <set>
    <rc><c>Cu</c><c>   1</c></rc>
    <rc><c>Cu</c><c>   1</c></rc>
    <rc><c>Cu</c><c>   1</c></rc>
    <rc><c>Cu</c><c>   1</c></rc>
    <rc><c>Cu</c><c>   1</c></rc>
    <rc><c>Cu</c><c>   1</c></rc>
    <rc><c>Cu</c><c>   1</c></rc>
    <rc><c>Cu</c><c>   1</c></rc>
    <rc><c>Cu</c><c>   1</c></rc>
    <rc><c>Cu</c><c>   1</c></rc>
    <rc><c>Cu</c><c>   1</c></rc>
    <rc><c>Cu</c><c>   1</c></rc>
    <rc><c>Cu</c><c>   1</c></rc>
    <rc><c>Cu</c><c>   1</c></rc>
    <rc><c>Cu</c><c>   1</c></rc>
    <rc><c>Cu</c><c>   1</c></rc>
    <rc><c>Cu</c><c>   1</c></rc>
    <rc><c>Cu</c><c>   1</c></rc>
    <rc><c>Cu</c><c>   1</c></rc>
    <rc><c>Cu</c><c>   1</c></rc>
    <rc><c>Cu</c><c>   1</c></rc>
    <rc><c>Cu</c><c>   1</c></rc>
    <rc><c>Cu</c><c>   1</c></rc>
    <rc><c>Cu</c><c>   1</c></rc>
    <rc><c>Cu</c><c>   1</c></rc>
    <rc><c>Cu</c><c>   1</c></rc>
    <rc><c>Cu</c><c>   1</c></rc>
    <rc><c>Cu</c><c>   1</c></rc>
    <rc><c>Cu</c><c>   1</c></rc>
    <rc><c>Cu</c><c>   1</c></rc>
    <rc><c>Cu</c><c>   1</c></rc>
    <rc><c>Cu</c><c>   1</c></rc>
    <rc><c>Cu</c><c>   1</c></rc>
    <rc><c>Cu</c><c>   1</c></rc>
    <rc><c>Cu</c><c>   1</c></rc>
    <rc><c>Cu</c><c>   1</c></rc>
    <rc><c>Cu</c><c>   1</c></rc>
    <rc><c>Cu</c><c>   1</c></rc>
    <rc><c>Cu</c><c>   1</c></rc>
    <rc><c>Cu</c><c>   1</c></rc>
    <rc><c>Cu</c><c>   1</c></rc>
    <rc><c>Cu</c><c>   1</c></rc>
    <rc><c>Cu</c><c>   1</c></rc>
    <rc><c>Cu</c><c>   1</c></rc>
    <rc><c>Cu</c><c>   1</c></rc>
    <rc><c>Cu</c><c>   1</c></rc>
    <rc><c>Cu</c><c>   1</c></rc>
    <rc><c>Cu</c><c>   1</c></rc>
    <rc><c>N </c><c>   2</c></rc>
    <rc><c>H </c><c>   3</c></rc>
    <rc><c>H </c><c>   3</c></rc>
   </set>
  </array>
  <array name="atomtypes" >
   <dimension dim="1">type</dimension>
   <field type="int">atomspertype</field>
   <field type="string">element</field>
   <field>mass</field>
   <field>valence</field>
   <field type="string">pseudopotential</field>
   <set>
    <rc><c>  48</c><c>Cu</c><c>     63.54600000</c><c>     11.00000000</c><c>  PAW_PBE Cu 22Jun2005                  </c></rc>
    <rc><c>   1</c><c>N </c><c>     14.00100000</c><c>      5.00000000</c><c>  PAW_PBE N 08Apr2002                   </c></rc>
    <rc><c>   2</c><c>H </c><c>      1.00000000</c><c>      1.00000000</c><c>  PAW_PBE H 15Jun2001                   </c></rc>
   </set>
  </array>
 </atominfo>
 <structure name="initialpos" >
  <crystal>
   <varray name="basis" >
    <v>      10.11850195       0.00000000       0.00000000 </v>
    <v>      -5.05925097       8.76287974       0.00000000 </v>
    <v>       0.00000000       0.00000000      18.58887505 </v>
   </varray>
   <i name="volume">   1648.22379336 </i>
   <varray name="rec_basis" >
    <v>       0.09882886       0.05705887      -0.00000000 </v>
    <v>       0.00000000       0.11411774      -0.00000000 </v>
    <v>       0.00000000       0.00000000       0.05379562 </v>
   </varray>
  </crystal>
  <varray name="positions" >
   <v>       0.99895999       0.00227913       0.61194661 </v>
   <v>       0.00035605       0.25069285       0.61520217 </v>
   <v>       0.99122698       0.49622431       0.60978119 </v>
   <v>       0.99601494       0.74998253       0.61129381 </v>
   <v>       0.24412919       0.00583454       0.61765191 </v>
   <v>       0.25063443       0.25247159       0.61191696 </v>
   <v>       0.25490390       0.49620421       0.60980535 </v>
   <v>       0.25220411       0.75440494       0.60777348 </v>
   <v>       0.51173854       0.00583831       0.61761219 </v>
   <v>       0.50348135       0.25663123       0.61152381 </v>
   <v>       0.50153166       0.50153566       0.61323699 </v>
   <v>       0.50392419       0.74997502       0.61129910 </v>
   <v>       0.75332191       0.00231454       0.61194531 </v>
   <v>       0.75184164       0.25248356       0.61191434 </v>
   <v>       0.74997083       0.50151361       0.61323481 </v>
   <v>       0.75054999       0.75120694       0.61330030 </v>
   <v>       0.08332860       0.16668598       0.38888246 </v>
   <v>       0.08331514       0.41662990       0.38880445 </v>
   <v>       0.08329656       0.66668218       0.38877180 </v>
   <v>       0.08330462       0.91671532       0.38881953 </v>
   <v>       0.33332178       0.16673118       0.38887295 </v>
   <v>       0.33335814       0.41664609       0.38882354 </v>
   <v>       0.33338544       0.66668208       0.38877176 </v>
   <v>       0.33337433       0.91674882       0.38878326 </v>
   <v>       0.58340958       0.16673046       0.38887277 </v>
   <v>       0.58335647       0.41667189       0.38886969 </v>
   <v>       0.58338708       0.66668638       0.38882951 </v>
   <v>       0.58341121       0.91671535       0.38881939 </v>
   <v>       0.83335780       0.16668569       0.38888239 </v>
   <v>       0.83328938       0.41664654       0.38882351 </v>
   <v>       0.83329862       0.66668629       0.38883031 </v>
   <v>       0.83338123       0.91674161       0.38888554 </v>
   <v>       0.16661308       0.08355310       0.49996450 </v>
   <v>       0.16654186       0.33305635       0.49974738 </v>
   <v>       0.16666182       0.58332179       0.49944690 </v>
   <v>       0.16639967       0.83372620       0.49947210 </v>
   <v>       0.41681133       0.08362245       0.49982840 </v>
   <v>       0.41666252       0.33333757       0.49997636 </v>
   <v>       0.41711941       0.58348478       0.49964770 </v>
   <v>       0.41732591       0.83372593       0.49947213 </v>
   <v>       0.66694174       0.08355250       0.49996383 </v>
   <v>       0.66667955       0.33334117       0.49997378 </v>
   <v>       0.66664377       0.58336190       0.49992685 </v>
   <v>       0.66687610       0.83344421       0.49990338 </v>
   <v>       0.91672470       0.08344133       0.50002420 </v>
   <v>       0.91651580       0.33305636       0.49974707 </v>
   <v>       0.91636196       0.58348581       0.49964693 </v>
   <v>       0.91656565       0.83344218       0.49990356 </v>
   <v>       0.34642013       0.94271117       0.68215124 </v>
   <v>       0.36319937       0.97611362       0.73476667 </v>
   <v>       0.15801651       0.56627006       0.70590206 </v>
  </varray>
 </structure>
 <calculation>
  <scstep>
   <time name="dav">    1.95    2.05</time>
   <time name="total">    1.98    2.10</time>
   <energy>
    <i name="alphaZ">   1044.42981019 </i>
    <i name="ewald"> 153501.97003816 </i>
    <i name="hartreedc">-217679.21670287 </i>
    <i name="XCdc">   2210.09404161 </i>
    <i name="pawpsdc">  59163.12046064 </i>
    <i name="pawaedc"> -64244.73594820 </i>
    <i name="eentropy">     -0.01460622 </i>
    <i name="bandstr">   4057.73593580 </i>
    <i name="atom">  67056.38188117 </i>
    <i name="e_fr_energy">   5109.76491027 </i>
    <i name="e_wo_entrp">   5109.77951649 </i>
    <i name="e_0_energy">   5109.76977901 </i>
   </energy>
  </scstep>
  <scstep>
   <time name="dav">    3.07    3.27</time>
   <time name="total">    3.07    3.27</time>
   <energy>
    <i name="e_fr_energy">    569.81090842 </i>
    <i name="e_wo_entrp">    569.80526354 </i>
    <i name="e_0_energy">    569.80902680 </i>
   </energy>
  </scstep>
  <scstep>
   <time name="dav">    1.90    1.92</time>
   <time name="total">    1.90    1.92</time>
   <energy>
    <i name="e_fr_energy">   -150.73674707 </i>
    <i name="e_wo_entrp">   -150.74309581 </i>
    <i name="e_0_energy">   -150.73886332 </i>
   </energy>
  </scstep>
  <scstep>
   <time name="dav">    2.32    2.34</time>
   <time name="total">    2.32    2.34</time>
   <energy>
    <i name="e_fr_energy">   -216.84791921 </i>
    <i name="e_wo_entrp">   -216.82454836 </i>
    <i name="e_0_energy">   -216.84012893 </i>
   </energy>
  </scstep>
  <scstep>
   <time name="dav">    2.49    2.51</time>
   <time name="total">    2.55    2.57</time>
   <energy>
    <i name="e_fr_energy">   -221.04921878 </i>
    <i name="e_wo_entrp">   -221.02714807 </i>
    <i name="e_0_energy">   -221.04186188 </i>
   </energy>
  </scstep>
  <scstep>
   <time name="diag">    0.31    0.32</time>
   <time name="diis">    0.72    0.73</time>
   <time name="orth">    0.09    0.09</time>
   <time name="total">    1.19    1.21</time>
   <energy>
    <i name="e_fr_energy">   -198.53459606 </i>
    <i name="e_wo_entrp">   -198.53146755 </i>
    <i name="e_0_energy">   -198.53355322 </i>
   </energy>
  </scstep>
  <scstep>
   <time name="diag">    0.31    0.31</time>
   <time name="diis">    0.73    0.73</time>
   <time name="orth">    0.09    0.09</time>
   <time name="total">    1.19    1.20</time>
   <energy>
    <i name="e_fr_energy">   -178.79022386 </i>
    <i name="e_wo_entrp">   -178.73022553 </i>
    <i name="e_0_energy">   -178.77022442 </i>
   </energy>
  </scstep>
  <scstep>
   <time name="diag">    0.31    0.31</time>
   <time name="diis">    0.77    0.77</time>
   <time name="orth">    0.09    0.09</time>
   <time name="total">    1.23    1.24</time>
   <energy>
    <i name="e_fr_energy">   -178.05359645 </i>
    <i name="e_wo_entrp">   -177.98846791 </i>
    <i name="e_0_energy">   -178.03188693 </i>
   </energy>
  </scstep>
  <scstep>
   <time name="diag">    0.31    0.31</time>
   <time name="diis">    0.72    0.73</time>
   <time name="orth">    0.09    0.09</time>
   <time name="total">    1.19    1.20</time>
   <energy>
    <i name="e_fr_energy">   -177.77402874 </i>
    <i name="e_wo_entrp">   -177.70565637 </i>
    <i name="e_0_energy">   -177.75123795 </i>
   </energy>
  </scstep>
  <scstep>
   <time name="diag">    0.31    0.31</time>
   <time name="diis">    0.76    0.76</time>
   <time name="orth">    0.09    0.09</time>
   <time name="total">    1.22    1.23</time>
   <energy>
    <i name="e_fr_energy">   -177.66053941 </i>
    <i name="e_wo_entrp">   -177.59308597 </i>
    <i name="e_0_energy">   -177.63805493 </i>
   </energy>
  </scstep>
  <scstep>
   <time name="diag">    0.31    0.31</time>
   <time name="diis">    0.73    0.73</time>
   <time name="orth">    0.09    0.09</time>
   <time name="total">    1.19    1.20</time>
   <energy>
    <i name="e_fr_energy">   -177.64075202 </i>
    <i name="e_wo_entrp">   -177.57479877 </i>
    <i name="e_0_energy">   -177.61876760 </i>
   </energy>
  </scstep>
  <scstep>
   <time name="diag">    0.31    0.31</time>
   <time name="diis">    0.73    0.73</time>
   <time name="orth">    0.09    0.09</time>
   <time name="total">    1.19    1.20</time>
   <energy>
    <i name="e_fr_energy">   -177.61484928 </i>
    <i name="e_wo_entrp">   -177.54465031 </i>
    <i name="e_0_energy">   -177.59144962 </i>
   </energy>
  </scstep>
  <scstep>
   <time name="diag">    0.31    0.31</time>
   <time name="diis">    0.95    0.95</time>
   <time name="orth">    0.09    0.09</time>
   <time name="total">    1.41    1.42</time>
   <energy>
    <i name="e_fr_energy">   -177.60967160 </i>
    <i name="e_wo_entrp">   -177.54035664 </i>
    <i name="e_0_energy">   -177.58656661 </i>
   </energy>
  </scstep>
  <scstep>
   <time name="diag">    0.31    0.31</time>
   <time name="diis">    0.73    0.74</time>
   <time name="orth">    0.09    0.09</time>
   <time name="total">    1.20    1.20</time>
   <energy>
    <i name="e_fr_energy">   -177.60681235 </i>
    <i name="e_wo_entrp">   -177.53809330 </i>
    <i name="e_0_energy">   -177.58390600 </i>
   </energy>
  </scstep>
  <scstep>
   <time name="diag">    0.31    0.31</time>
   <time name="diis">    0.73    0.73</time>
   <time name="orth">    0.09    0.09</time>
   <time name="total">    1.20    1.20</time>
   <energy>
    <i name="e_fr_energy">   -177.60377455 </i>
    <i name="e_wo_entrp">   -177.53489069 </i>
    <i name="e_0_energy">   -177.58081326 </i>
   </energy>
  </scstep>
  <scstep>
   <time name="diag">    0.31    0.31</time>
   <time name="diis">    0.72    0.73</time>
   <time name="orth">    0.09    0.09</time>
   <time name="total">    1.19    1.20</time>
   <energy>
    <i name="e_fr_energy">   -177.60208862 </i>
    <i name="e_wo_entrp">   -177.53295894 </i>
    <i name="e_0_energy">   -177.57904539 </i>
   </energy>
  </scstep>
  <scstep>
   <time name="diag">    0.31    0.31</time>
   <time name="diis">    0.75    0.76</time>
   <time name="orth">    0.09    0.09</time>
   <time name="total">    1.22    1.23</time>
   <energy>
    <i name="e_fr_energy">   -177.60202552 </i>
    <i name="e_wo_entrp">   -177.53292444 </i>
    <i name="e_0_energy">   -177.57899183 </i>
   </energy>
  </scstep>
  <scstep>
   <time name="diag">    0.31    0.31</time>
   <time name="diis">    0.72    0.73</time>
   <time name="orth">    0.09    0.09</time>
   <time name="total">    1.19    1.19</time>
   <energy>
    <i name="e_fr_energy">   -177.60245314 </i>
    <i name="e_wo_entrp">   -177.53347901 </i>
    <i name="e_0_energy">   -177.57946176 </i>
   </energy>
  </scstep>
  <scstep>
   <time name="diag">    0.31    0.31</time>
   <time name="diis">    0.72    0.73</time>
   <time name="orth">    0.09    0.09</time>
   <time name="total">    1.20    1.21</time>
   <energy>
    <i name="e_fr_energy">   -177.60317314 </i>
    <i name="e_wo_entrp">   -177.53427904 </i>
    <i name="e_0_energy">   -177.58020844 </i>
   </energy>
  </scstep>
  <scstep>
   <time name="diag">    0.31    0.31</time>
   <time name="diis">    0.72    0.73</time>
   <time name="orth">    0.09    0.09</time>
   <time name="total">    1.18    1.19</time>
   <energy>
    <i name="e_fr_energy">   -177.60372802 </i>
    <i name="e_wo_entrp">   -177.53475206 </i>
    <i name="e_0_energy">   -177.58073603 </i>
   </energy>
  </scstep>
  <scstep>
   <time name="diag">    0.31    0.31</time>
   <time name="diis">    0.71    0.72</time>
   <time name="orth">    0.09    0.09</time>
   <time name="total">    1.17    1.18</time>
   <energy>
    <i name="e_fr_energy">   -177.60424867 </i>
    <i name="e_wo_entrp">   -177.53525133 </i>
    <i name="e_0_energy">   -177.58124956 </i>
   </energy>
  </scstep>
  <scstep>
   <time name="diag">    0.31    0.31</time>
   <time name="diis">    0.68    0.69</time>
   <time name="orth">    0.09    0.09</time>
   <time name="total">    1.14    1.15</time>
   <energy>
    <i name="e_fr_energy">   -177.60470971 </i>
    <i name="e_wo_entrp">   -177.53570434 </i>
    <i name="e_0_energy">   -177.58170792 </i>
   </energy>
  </scstep>
  <scstep>
   <time name="diag">    0.31    0.31</time>
   <time name="diis">    0.60    0.61</time>
   <time name="orth">    0.09    0.09</time>
   <time name="total">    1.07    1.08</time>
   <energy>
    <i name="e_fr_energy">   -177.60510983 </i>
    <i name="e_wo_entrp">   -177.53607102 </i>
    <i name="e_0_energy">   -177.58209690 </i>
   </energy>
  </scstep>
  <scstep>
   <time name="diag">    0.31    0.31</time>
   <time name="diis">    0.46    0.47</time>
   <time name="orth">    0.09    0.09</time>
   <time name="total">    0.93    0.93</time>
   <energy>
    <i name="e_fr_energy">   -177.60531032 </i>
    <i name="e_wo_entrp">   -177.53629270 </i>
    <i name="e_0_energy">   -177.58230445 </i>
   </energy>
  </scstep>
  <scstep>
   <time name="diag">    0.31    0.31</time>
   <time name="diis">    0.47    0.47</time>
   <time name="orth">    0.09    0.09</time>
   <time name="total">    0.93    0.94</time>
   <energy>
    <i name="e_fr_energy">   -177.60559369 </i>
    <i name="e_wo_entrp">   -177.53658775 </i>
    <i name="e_0_energy">   -177.58259171 </i>
   </energy>
  </scstep>
  <scstep>
   <time name="diag">    0.31    0.31</time>
   <time name="diis">    0.46    0.47</time>
   <time name="orth">    0.09    0.09</time>
   <time name="total">    0.93    0.94</time>
   <energy>
    <i name="e_fr_energy">   -177.60573110 </i>
    <i name="e_wo_entrp">   -177.53674275 </i>
    <i name="e_0_energy">   -177.58273499 </i>
   </energy>
  </scstep>
  <scstep>
   <time name="diag">    1.49    1.50</time>
   <time name="diis">    0.54    0.54</time>
   <time name="orth">    0.09    0.09</time>
   <time name="total">    2.19    2.20</time>
   <energy>
    <i name="e_fr_energy">   -177.60576007 </i>
    <i name="e_wo_entrp">   -177.53676667 </i>
    <i name="e_0_energy">   -177.58276227 </i>
   </energy>
  </scstep>
  <scstep>
   <time name="diag">    0.31    0.31</time>
   <time name="diis">    0.46    0.46</time>
   <time name="orth">    0.09    0.09</time>
   <time name="total">    0.92    0.93</time>
   <energy>
    <i name="e_fr_energy">   -177.60583254 </i>
    <i name="e_wo_entrp">   -177.53682961 </i>
    <i name="e_0_energy">   -177.58283156 </i>
   </energy>
  </scstep>
  <scstep>
   <time name="diag">    0.31    0.31</time>
   <time name="diis">    0.45    0.45</time>
   <time name="orth">    0.09    0.09</time>
   <time name="total">    0.91    0.91</time>
   <energy>
    <i name="e_fr_energy">   -177.60584785 </i>
    <i name="e_wo_entrp">   -177.53684530 </i>
    <i name="e_0_energy">   -177.58284700 </i>
   </energy>
  </scstep>
  <scstep>
   <time name="diag">    0.31    0.31</time>
   <time name="diis">    0.43    0.43</time>
   <time name="orth">    0.09    0.09</time>
   <time name="total">    0.84    0.84</time>
   <energy>
    <i name="alphaZ">   1044.42981019 </i>
    <i name="ewald"> 153501.97003816 </i>
    <i name="hartreedc">-216967.76787445 </i>
    <i name="XCdc">   2162.31690689 </i>
    <i name="pawpsdc">  63307.09547806 </i>
    <i name="pawaedc"> -68482.35213792 </i>
    <i name="eentropy">     -0.06899972 </i>
    <i name="bandstr">  -1799.61095582 </i>
    <i name="atom">  67056.38188117 </i>
    <i name="e_fr_energy">   -177.60585345 </i>
    <i name="e_wo_entrp">   -177.53685373 </i>
    <i name="e_0_energy">   -177.58285354 </i>
   </energy>
  </scstep>
  <structure>
   <crystal>
    <varray name="basis" >
     <v>      10.11850195       0.00000000       0.00000000 </v>
     <v>      -5.05925097       8.76287974       0.00000000 </v>
     <v>       0.00000000       0.00000000      18.58887505 </v>
    </varray>
    <i name="volume">   1648.22379336 </i>
    <varray name="rec_basis" >
     <v>       0.09882886       0.05705887      -0.00000000 </v>
     <v>       0.00000000       0.11411774      -0.00000000 </v>
     <v>       0.00000000       0.00000000       0.05379562 </v>
    </varray>
   </crystal>
   <varray name="positions" >
    <v>       0.99895999       0.00227913       0.61194661 </v>
    <v>       0.00035605       0.25069285       0.61520217 </v>
    <v>       0.99122698       0.49622431       0.60978119 </v>
    <v>       0.99601494       0.74998253       0.61129381 </v>
    <v>       0.24412919       0.00583454       0.61765191 </v>
    <v>       0.25063443       0.25247159       0.61191696 </v>
    <v>       0.25490390       0.49620421       0.60980535 </v>
    <v>       0.25220411       0.75440494       0.60777348 </v>
    <v>       0.51173854       0.00583831       0.61761219 </v>
    <v>       0.50348135       0.25663123       0.61152381 </v>
    <v>       0.50153166       0.50153566       0.61323699 </v>
    <v>       0.50392419       0.74997502       0.61129910 </v>
    <v>       0.75332191       0.00231454       0.61194531 </v>
    <v>       0.75184164       0.25248356       0.61191434 </v>
    <v>       0.74997083       0.50151361       0.61323481 </v>
    <v>       0.75054999       0.75120694       0.61330030 </v>
    <v>       0.08332860       0.16668598       0.38888246 </v>
    <v>       0.08331514       0.41662990       0.38880445 </v>
    <v>       0.08329656       0.66668218       0.38877180 </v>
    <v>       0.08330462       0.91671532       0.38881953 </v>
    <v>       0.33332178       0.16673118       0.38887295 </v>
    <v>       0.33335814       0.41664609       0.38882354 </v>
    <v>       0.33338544       0.66668208       0.38877176 </v>
    <v>       0.33337433       0.91674882       0.38878326 </v>
    <v>       0.58340958       0.16673046       0.38887277 </v>
    <v>       0.58335647       0.41667189       0.38886969 </v>
    <v>       0.58338708       0.66668638       0.38882951 </v>
    <v>       0.58341121       0.91671535       0.38881939 </v>
    <v>       0.83335780       0.16668569       0.38888239 </v>
    <v>       0.83328938       0.41664654       0.38882351 </v>
    <v>       0.83329862       0.66668629       0.38883031 </v>
    <v>       0.83338123       0.91674161       0.38888554 </v>
    <v>       0.16661308       0.08355310       0.49996450 </v>
    <v>       0.16654186       0.33305635       0.49974738 </v>
    <v>       0.16666182       0.58332179       0.49944690 </v>
    <v>       0.16639967       0.83372620       0.49947210 </v>
    <v>       0.41681133       0.08362245       0.49982840 </v>
    <v>       0.41666252       0.33333757       0.49997636 </v>
    <v>       0.41711941       0.58348478       0.49964770 </v>
    <v>       0.41732591       0.83372593       0.49947213 </v>
    <v>       0.66694174       0.08355250       0.49996383 </v>
    <v>       0.66667955       0.33334117       0.49997378 </v>
    <v>       0.66664377       0.58336190       0.49992685 </v>
    <v>       0.66687610       0.83344421       0.49990338 </v>
    <v>       0.91672470       0.08344133       0.50002420 </v>
    <v>       0.91651580       0.33305636       0.49974707 </v>
    <v>       0.91636196       0.58348581       0.49964693 </v>
    <v>       0.91656565       0.83344218       0.49990356 </v>
    <v>       0.34642013       0.94271117       0.68215124 </v>
    <v>       0.36319937       0.97611362       0.73476667 </v>
    <v>       0.15801651       0.56627006       0.70590206 </v>
   </varray>
  </structure>
  <varray name="forces" >
   <v>      -0.02650609      -0.00133781       0.02874604 </v>
   <v>      -0.00077465       0.00670861      -0.10069585 </v>
   <v>       0.87850364       0.46280215       0.87791926 </v>
   <v>       0.00411909       0.01325502       0.01123558 </v>
   <v>       0.09187235       0.00416896       0.12826757 </v>
   <v>      -0.00799932      -0.07535976       0.00144682 </v>
   <v>      -0.87412415       0.46268495       0.87458949 </v>
   <v>      -0.00069903      -0.31336783       1.57860729 </v>
   <v>      -0.09125455       0.00263752       0.12857162 </v>
   <v>      -0.01111705      -0.18041909       0.13453258 </v>
   <v>       0.11761524      -0.00473378      -0.01623761 </v>
   <v>      -0.00464156       0.01286663       0.01092259 </v>
   <v>       0.02821047      -0.00241323       0.02850079 </v>
   <v>       0.01455095      -0.07598460       0.00194146 </v>
   <v>      -0.11804268       0.00117191      -0.01629710 </v>
   <v>       0.00272308       0.00580462       0.01027468 </v>
   <v>       0.00572838      -0.01406211      -0.15627395 </v>
   <v>       0.00004716      -0.03435026      -0.15466744 </v>
   <v>      -0.00927703      -0.02484127      -0.22806990 </v>
   <v>      -0.01504711       0.06126375      -0.19870227 </v>
   <v>      -0.03787938      -0.00566973      -0.16480097 </v>
   <v>       0.02643185      -0.00968311      -0.16800524 </v>
   <v>       0.00950786      -0.02481984      -0.22798867 </v>
   <v>       0.00001671       0.01353553      -0.22332892 </v>
   <v>       0.03800452      -0.00606466      -0.16489251 </v>
   <v>      -0.00128389       0.03281844      -0.15673075 </v>
   <v>       0.05403322      -0.00730648      -0.14489672 </v>
   <v>       0.01536506       0.06129494      -0.19879583 </v>
   <v>      -0.00559318      -0.01418119      -0.15631623 </v>
   <v>      -0.02539964      -0.00960707      -0.16813657 </v>
   <v>      -0.05394136      -0.00736617      -0.14451919 </v>
   <v>      -0.00053853      -0.02740748      -0.13579300 </v>
   <v>       0.14923834      -0.11835302       0.24195875 </v>
   <v>      -0.10581419       0.00189947       0.06804021 </v>
   <v>      -0.00015285       0.13527032       0.07945395 </v>
   <v>      -0.04348414       0.06090359       0.07763646 </v>
   <v>      -0.00030117      -0.05315704       0.21663645 </v>
   <v>      -0.00043281      -0.01615066       0.10577777 </v>
   <v>      -0.05288830       0.03143712       0.09662997 </v>
   <v>       0.04333884       0.06058907       0.07688767 </v>
   <v>      -0.14871345      -0.11795802       0.24049787 </v>
   <v>       0.00115383      -0.01493376       0.10304056 </v>
   <v>       0.00240687       0.03812740       0.14936626 </v>
   <v>       0.03065733       0.03355077       0.12499420 </v>
   <v>      -0.00027330       0.04871394       0.08279825 </v>
   <v>       0.10595991       0.00140662       0.06731696 </v>
   <v>       0.05044065       0.03190895       0.09501672 </v>
   <v>      -0.03140131       0.03274726       0.12521332 </v>
   <v>      -0.00191822       0.04111923      -1.26636974 </v>
   <v>      -0.00060225      -0.33156813       0.19841111 </v>
   <v>       0.00017581      -0.16759066      -1.77371380 </v>
  </varray>
  <varray name="stress" >
   <v>       4.03671374      -0.00377364      -0.00302031 </v>
   <v>      -0.00377339       1.22577535      -1.22428744 </v>
   <v>      -0.00302031      -1.22428741       1.92604564 </v>
  </varray>
  <energy>
   <i name="e_fr_energy">   -177.60585345 </i>
   <i name="e_wo_entrp">   -177.53685373 </i>
   <i name="e_0_energy">   -177.58285354 </i>
  </energy>
  <time name="totalsc">   42.09   42.76</time>
  <eigenvalues>
   <array>
    <dimension dim="1">band</dimension>
    <dimension dim="2">kpoint</dimension>
    <dimension dim="3">spin</dimension>
    <field>eigene</field>
    <field>occ</field>
    <set>
     <set comment="spin 1">
      <set comment="kpoint 1">
       <r>  -15.6415    1.0000 </r>
       <r>   -9.2241    1.0000 </r>
       <r>   -7.8175    1.0000 </r>
       <r>   -7.3607    1.0000 </r>
       <r>   -7.3479    1.0000 </r>
       <r>   -7.3440    1.0000 </r>
       <r>   -7.3380    1.0000 </r>
       <r>   -7.3244    1.0000 </r>
       <r>   -7.2766    1.0000 </r>
       <r>   -6.8567    1.0000 </r>
       <r>   -5.7609    1.0000 </r>
       <r>   -5.7420    1.0000 </r>
       <r>   -5.7384    1.0000 </r>
       <r>   -5.6627    1.0000 </r>
       <r>   -5.6536    1.0000 </r>
       <r>   -5.6409    1.0000 </r>
       <r>   -5.3669    1.0000 </r>
       <r>   -5.2896    1.0000 </r>
       <r>   -5.2877    1.0000 </r>
       <r>   -5.2717    1.0000 </r>
       <r>   -5.1386    1.0000 </r>
       <r>   -5.1279    1.0000 </r>
       <r>   -5.0560    1.0000 </r>
       <r>   -5.0297    1.0000 </r>
       <r>   -4.9821    1.0000 </r>
       <r>   -4.9734    1.0000 </r>
       <r>   -4.9571    1.0000 </r>
       <r>   -4.9427    1.0000 </r>
       <r>   -4.9388    1.0000 </r>
       <r>   -4.8097    1.0000 </r>
       <r>   -4.8021    1.0000 </r>
       <r>   -4.7034    1.0000 </r>
       <r>   -4.7024    1.0000 </r>
       <r>   -4.6991    1.0000 </r>
       <r>   -4.6882    1.0000 </r>
       <r>   -4.6874    1.0000 </r>
       <r>   -4.6851    1.0000 </r>
       <r>   -4.6812    1.0000 </r>
       <r>   -4.6791    1.0000 </r>
       <r>   -4.6729    1.0000 </r>
       <r>   -4.6717    1.0000 </r>
       <r>   -4.6695    1.0000 </r>
       <r>   -4.6680    1.0000 </r>
       <r>   -4.6505    1.0000 </r>
       <r>   -4.6323    1.0000 </r>
       <r>   -4.6241    1.0000 </r>
       <r>   -4.4994    1.0000 </r>
       <r>   -4.4211    1.0000 </r>
       <r>   -4.3814    1.0000 </r>
       <r>   -4.3709    1.0000 </r>
       <r>   -4.3702    1.0000 </r>
       <r>   -4.3647    1.0000 </r>
       <r>   -4.3421    1.0000 </r>
       <r>   -4.3112    1.0000 </r>
       <r>   -4.2679    1.0000 </r>
       <r>   -4.1687    1.0000 </r>
       <r>   -4.1668    1.0000 </r>
       <r>   -4.1607    1.0000 </r>
       <r>   -4.1522    1.0000 </r>
       <r>   -4.1382    1.0000 </r>
       <r>   -4.1160    1.0000 </r>
       <r>   -4.0723    1.0000 </r>
       <r>   -4.0576    1.0000 </r>
       <r>   -4.0563    1.0000 </r>
       <r>   -4.0485    1.0000 </r>
       <r>   -4.0454    1.0000 </r>
       <r>   -4.0363    1.0000 </r>
       <r>   -3.9554    1.0000 </r>
       <r>   -3.9198    1.0000 </r>
       <r>   -3.9113    1.0000 </r>
       <r>   -3.9039    1.0000 </r>
       <r>   -3.9017    1.0000 </r>
       <r>   -3.8958    1.0000 </r>
       <r>   -3.8900    1.0000 </r>
       <r>   -3.8840    1.0000 </r>
       <r>   -3.8749    1.0000 </r>
       <r>   -3.8509    1.0000 </r>
       <r>   -3.8487    1.0000 </r>
       <r>   -3.8391    1.0000 </r>
       <r>   -3.8362    1.0000 </r>
       <r>   -3.8248    1.0000 </r>
       <r>   -3.8182    1.0000 </r>
       <r>   -3.7730    1.0000 </r>
       <r>   -3.7719    1.0000 </r>
       <r>   -3.7531    1.0000 </r>
       <r>   -3.7414    1.0000 </r>
       <r>   -3.7219    1.0000 </r>
       <r>   -3.6992    1.0000 </r>
       <r>   -3.6191    1.0000 </r>
       <r>   -3.6134    1.0000 </r>
       <r>   -3.5995    1.0000 </r>
       <r>   -3.5719    1.0000 </r>
       <r>   -3.5467    1.0000 </r>
       <r>   -3.5399    1.0000 </r>
       <r>   -3.5379    1.0000 </r>
       <r>   -3.5313    1.0000 </r>
       <r>   -3.5161    1.0000 </r>
       <r>   -3.5046    1.0000 </r>
       <r>   -3.4814    1.0000 </r>
       <r>   -3.4793    1.0000 </r>
       <r>   -3.4655    1.0000 </r>
       <r>   -3.4100    1.0000 </r>
       <r>   -3.4052    1.0000 </r>
       <r>   -3.3987    1.0000 </r>
       <r>   -3.3633    1.0000 </r>
       <r>   -3.3620    1.0000 </r>
       <r>   -3.3485    1.0000 </r>
       <r>   -3.3460    1.0000 </r>
       <r>   -3.3278    1.0000 </r>
       <r>   -3.3255    1.0000 </r>
       <r>   -3.3239    1.0000 </r>
       <r>   -3.3190    1.0000 </r>
       <r>   -3.3187    1.0000 </r>
       <r>   -3.3116    1.0000 </r>
       <r>   -3.2975    1.0000 </r>
       <r>   -3.2940    1.0000 </r>
       <r>   -3.2760    1.0000 </r>
       <r>   -3.2579    1.0000 </r>
       <r>   -3.2516    1.0000 </r>
       <r>   -3.2484    1.0000 </r>
       <r>   -3.2380    1.0000 </r>
       <r>   -3.2373    1.0000 </r>
       <r>   -3.2298    1.0000 </r>
       <r>   -3.2217    1.0000 </r>
       <r>   -3.2194    1.0000 </r>
       <r>   -3.2143    1.0000 </r>
       <r>   -3.1938    1.0000 </r>
       <r>   -3.1911    1.0000 </r>
       <r>   -3.1811    1.0000 </r>
       <r>   -3.1740    1.0000 </r>
       <r>   -3.1588    1.0000 </r>
       <r>   -3.1585    1.0000 </r>
       <r>   -3.1583    1.0000 </r>
       <r>   -3.1556    1.0000 </r>
       <r>   -3.1493    1.0000 </r>
       <r>   -3.1489    1.0000 </r>
       <r>   -3.1357    1.0000 </r>
       <r>   -3.1288    1.0000 </r>
       <r>   -3.1218    1.0000 </r>
       <r>   -3.1147    1.0000 </r>
       <r>   -3.1104    1.0000 </r>
       <r>   -3.1091    1.0000 </r>
       <r>   -3.1056    1.0000 </r>
       <r>   -3.1002    1.0000 </r>
       <r>   -3.0884    1.0000 </r>
       <r>   -3.0875    1.0000 </r>
       <r>   -3.0787    1.0000 </r>
       <r>   -3.0751    1.0000 </r>
       <r>   -3.0683    1.0000 </r>
       <r>   -3.0608    1.0000 </r>
       <r>   -3.0602    1.0000 </r>
       <r>   -3.0571    1.0000 </r>
       <r>   -3.0396    1.0000 </r>
       <r>   -3.0326    1.0000 </r>
       <r>   -3.0123    1.0000 </r>
       <r>   -2.9982    1.0000 </r>
       <r>   -2.9284    1.0000 </r>
       <r>   -2.8766    1.0000 </r>
       <r>   -2.8559    1.0000 </r>
       <r>   -2.8523    1.0000 </r>
       <r>   -2.8485    1.0000 </r>
       <r>   -2.8469    1.0000 </r>
       <r>   -2.8440    1.0000 </r>
       <r>   -2.8151    1.0000 </r>
       <r>   -2.7973    1.0000 </r>
       <r>   -2.7757    1.0000 </r>
       <r>   -2.7479    1.0000 </r>
       <r>   -2.7421    1.0000 </r>
       <r>   -2.7223    1.0000 </r>
       <r>   -2.7221    1.0000 </r>
       <r>   -2.7064    1.0000 </r>
       <r>   -2.6827    1.0000 </r>
       <r>   -2.6708    1.0000 </r>
       <r>   -2.6540    1.0000 </r>
       <r>   -2.6502    1.0000 </r>
       <r>   -2.6311    1.0000 </r>
       <r>   -2.6273    1.0000 </r>
       <r>   -2.6090    1.0000 </r>
       <r>   -2.5955    1.0000 </r>
       <r>   -2.5887    1.0000 </r>
       <r>   -2.5837    1.0000 </r>
       <r>   -2.5822    1.0000 </r>
       <r>   -2.5793    1.0000 </r>
       <r>   -2.5732    1.0000 </r>
       <r>   -2.5625    1.0000 </r>
       <r>   -2.5614    1.0000 </r>
       <r>   -2.5553    1.0000 </r>
       <r>   -2.5289    1.0000 </r>
       <r>   -2.5275    1.0000 </r>
       <r>   -2.5156    1.0000 </r>
       <r>   -2.5055    1.0000 </r>
       <r>   -2.4911    1.0000 </r>
       <r>   -2.4852    1.0000 </r>
       <r>   -2.4851    1.0000 </r>
       <r>   -2.4734    1.0000 </r>
       <r>   -2.4693    1.0000 </r>
       <r>   -2.4620    1.0000 </r>
       <r>   -2.4590    1.0000 </r>
       <r>   -2.4438    1.0000 </r>
       <r>   -2.4304    1.0000 </r>
       <r>   -2.4118    1.0000 </r>
       <r>   -2.3975    1.0000 </r>
       <r>   -2.3797    1.0000 </r>
       <r>   -2.3783    1.0000 </r>
       <r>   -2.3692    1.0000 </r>
       <r>   -2.3639    1.0000 </r>
       <r>   -2.3457    1.0000 </r>
       <r>   -2.3380    1.0000 </r>
       <r>   -2.3254    1.0000 </r>
       <r>   -2.3162    1.0000 </r>
       <r>   -2.3029    1.0000 </r>
       <r>   -2.2960    1.0000 </r>
       <r>   -2.2865    1.0000 </r>
       <r>   -2.2762    1.0000 </r>
       <r>   -2.2636    1.0000 </r>
       <r>   -2.2515    1.0000 </r>
       <r>   -2.2348    1.0000 </r>
       <r>   -2.2006    1.0000 </r>
       <r>   -2.1574    1.0000 </r>
       <r>   -2.1394    1.0000 </r>
       <r>   -2.1377    1.0000 </r>
       <r>   -2.1307    1.0000 </r>
       <r>   -2.1293    1.0000 </r>
       <r>   -2.1070    1.0000 </r>
       <r>   -2.1012    1.0000 </r>
       <r>   -2.0911    1.0000 </r>
       <r>   -2.0863    1.0000 </r>
       <r>   -2.0825    1.0000 </r>
       <r>   -2.0725    1.0000 </r>
       <r>   -2.0644    1.0000 </r>
       <r>   -2.0616    1.0000 </r>
       <r>   -2.0576    1.0000 </r>
       <r>   -2.0566    1.0000 </r>
       <r>   -2.0557    1.0000 </r>
       <r>   -2.0514    1.0000 </r>
       <r>   -2.0455    1.0000 </r>
       <r>   -2.0412    1.0000 </r>
       <r>   -2.0394    1.0000 </r>
       <r>   -2.0346    1.0000 </r>
       <r>   -2.0346    1.0000 </r>
       <r>   -2.0312    1.0000 </r>
       <r>   -2.0294    1.0000 </r>
       <r>   -2.0253    1.0000 </r>
       <r>   -2.0198    1.0000 </r>
       <r>   -1.9707    1.0000 </r>
       <r>   -1.9659    1.0000 </r>
       <r>   -1.9632    1.0000 </r>
       <r>   -1.9600    1.0000 </r>
       <r>   -1.9580    1.0000 </r>
       <r>   -1.9511    1.0000 </r>
       <r>   -1.7993    1.0000 </r>
       <r>   -1.7988    1.0000 </r>
       <r>   -1.7979    1.0000 </r>
       <r>   -1.7875    1.0000 </r>
       <r>   -1.7822    1.0000 </r>
       <r>   -1.7568    1.0000 </r>
       <r>   -1.4555    1.0000 </r>
       <r>   -1.2974    1.0000 </r>
       <r>   -1.2855    1.0000 </r>
       <r>   -1.0689    1.0000 </r>
       <r>   -0.4260    0.5720 </r>
       <r>   -0.4099    0.4364 </r>
       <r>   -0.4062    0.4053 </r>
       <r>   -0.4007    0.3605 </r>
       <r>   -0.3910    0.2852 </r>
       <r>   -0.3784    0.1960 </r>
       <r>   -0.3743    0.1700 </r>
       <r>   -0.3644    0.1137 </r>
       <r>   -0.3025   -0.0345 </r>
       <r>   -0.2351   -0.0135 </r>
       <r>   -0.1486   -0.0005 </r>
       <r>   -0.1291   -0.0002 </r>
       <r>    0.0175   -0.0000 </r>
       <r>    0.1711   -0.0000 </r>
       <r>    0.3017   -0.0000 </r>
       <r>    0.6383   -0.0000 </r>
       <r>    0.7462   -0.0000 </r>
       <r>    0.7576   -0.0000 </r>
       <r>    0.7686   -0.0000 </r>
       <r>    0.7745   -0.0000 </r>
       <r>    0.7791   -0.0000 </r>
       <r>    1.0200   -0.0000 </r>
       <r>    1.0496   -0.0000 </r>
       <r>    1.0851   -0.0000 </r>
       <r>    1.2227   -0.0000 </r>
       <r>    1.2915   -0.0000 </r>
       <r>    1.4592   -0.0000 </r>
       <r>    1.8557   -0.0000 </r>
       <r>    2.4443    0.0000 </r>
       <r>    2.4539    0.0000 </r>
       <r>    2.5027    0.0000 </r>
       <r>    2.6316    0.0000 </r>
       <r>    2.8590    0.0000 </r>
       <r>    3.0347    0.0000 </r>
       <r>    3.1892    0.0000 </r>
       <r>    3.2422    0.0000 </r>
       <r>    3.5155    0.0000 </r>
       <r>    3.5307    0.0000 </r>
       <r>    3.6088    0.0000 </r>
       <r>    3.8377    0.0000 </r>
       <r>    4.0975    0.0000 </r>
       <r>    4.2568    0.0000 </r>
       <r>    4.2947    0.0000 </r>
       <r>    4.3208    0.0000 </r>
       <r>    4.7433    0.0000 </r>
       <r>    5.0687    0.0000 </r>
       <r>    5.3336    0.0000 </r>
       <r>    5.4228    0.0000 </r>
       <r>    5.4790    0.0000 </r>
       <r>    5.4962    0.0000 </r>
       <r>    5.5001    0.0000 </r>
       <r>    5.5177    0.0000 </r>
       <r>    5.5885    0.0000 </r>
       <r>    5.6679    0.0000 </r>
       <r>    5.7971    0.0000 </r>
       <r>    6.1270    0.0000 </r>
       <r>    6.2156    0.0000 </r>
       <r>    6.2422    0.0000 </r>
       <r>    6.2615    0.0000 </r>
       <r>    6.3039    0.0000 </r>
       <r>    6.3226    0.0000 </r>
       <r>    6.3526    0.0000 </r>
       <r>    6.3823    0.0000 </r>
       <r>    6.4890    0.0000 </r>
      </set>
      <set comment="kpoint 2">
       <r>  -15.6414    1.0000 </r>
       <r>   -9.0026    1.0000 </r>
       <r>   -8.3632    1.0000 </r>
       <r>   -7.8529    1.0000 </r>
       <r>   -7.7248    1.0000 </r>
       <r>   -7.4921    1.0000 </r>
       <r>   -6.8829    1.0000 </r>
       <r>   -6.6333    1.0000 </r>
       <r>   -6.6045    1.0000 </r>
       <r>   -6.3404    1.0000 </r>
       <r>   -6.2141    1.0000 </r>
       <r>   -5.9577    1.0000 </r>
       <r>   -5.7957    1.0000 </r>
       <r>   -5.7435    1.0000 </r>
       <r>   -5.7271    1.0000 </r>
       <r>   -5.5273    1.0000 </r>
       <r>   -5.4824    1.0000 </r>
       <r>   -5.3123    1.0000 </r>
       <r>   -5.2890    1.0000 </r>
       <r>   -5.2288    1.0000 </r>
       <r>   -5.2262    1.0000 </r>
       <r>   -5.1952    1.0000 </r>
       <r>   -5.1028    1.0000 </r>
       <r>   -5.0898    1.0000 </r>
       <r>   -5.0842    1.0000 </r>
       <r>   -5.0601    1.0000 </r>
       <r>   -5.0383    1.0000 </r>
       <r>   -4.9909    1.0000 </r>
       <r>   -4.9293    1.0000 </r>
       <r>   -4.9023    1.0000 </r>
       <r>   -4.8424    1.0000 </r>
       <r>   -4.8162    1.0000 </r>
       <r>   -4.7929    1.0000 </r>
       <r>   -4.7559    1.0000 </r>
       <r>   -4.6994    1.0000 </r>
       <r>   -4.6783    1.0000 </r>
       <r>   -4.6567    1.0000 </r>
       <r>   -4.6290    1.0000 </r>
       <r>   -4.6238    1.0000 </r>
       <r>   -4.6183    1.0000 </r>
       <r>   -4.5954    1.0000 </r>
       <r>   -4.5701    1.0000 </r>
       <r>   -4.5533    1.0000 </r>
       <r>   -4.5307    1.0000 </r>
       <r>   -4.5105    1.0000 </r>
       <r>   -4.5012    1.0000 </r>
       <r>   -4.4888    1.0000 </r>
       <r>   -4.4851    1.0000 </r>
       <r>   -4.4509    1.0000 </r>
       <r>   -4.4133    1.0000 </r>
       <r>   -4.3892    1.0000 </r>
       <r>   -4.3654    1.0000 </r>
       <r>   -4.3571    1.0000 </r>
       <r>   -4.3213    1.0000 </r>
       <r>   -4.3041    1.0000 </r>
       <r>   -4.2732    1.0000 </r>
       <r>   -4.2204    1.0000 </r>
       <r>   -4.1923    1.0000 </r>
       <r>   -4.1756    1.0000 </r>
       <r>   -4.1518    1.0000 </r>
       <r>   -4.1201    1.0000 </r>
       <r>   -4.1083    1.0000 </r>
       <r>   -4.0896    1.0000 </r>
       <r>   -4.0443    1.0000 </r>
       <r>   -3.9877    1.0000 </r>
       <r>   -3.9753    1.0000 </r>
       <r>   -3.9716    1.0000 </r>
       <r>   -3.9644    1.0000 </r>
       <r>   -3.9499    1.0000 </r>
       <r>   -3.9336    1.0000 </r>
       <r>   -3.9303    1.0000 </r>
       <r>   -3.9249    1.0000 </r>
       <r>   -3.9187    1.0000 </r>
       <r>   -3.9065    1.0000 </r>
       <r>   -3.9023    1.0000 </r>
       <r>   -3.8893    1.0000 </r>
       <r>   -3.8652    1.0000 </r>
       <r>   -3.8508    1.0000 </r>
       <r>   -3.8406    1.0000 </r>
       <r>   -3.8109    1.0000 </r>
       <r>   -3.8091    1.0000 </r>
       <r>   -3.7371    1.0000 </r>
       <r>   -3.7272    1.0000 </r>
       <r>   -3.7146    1.0000 </r>
       <r>   -3.6884    1.0000 </r>
       <r>   -3.6691    1.0000 </r>
       <r>   -3.6596    1.0000 </r>
       <r>   -3.6488    1.0000 </r>
       <r>   -3.6296    1.0000 </r>
       <r>   -3.6049    1.0000 </r>
       <r>   -3.5938    1.0000 </r>
       <r>   -3.5842    1.0000 </r>
       <r>   -3.5720    1.0000 </r>
       <r>   -3.5624    1.0000 </r>
       <r>   -3.5510    1.0000 </r>
       <r>   -3.5381    1.0000 </r>
       <r>   -3.5327    1.0000 </r>
       <r>   -3.5197    1.0000 </r>
       <r>   -3.5080    1.0000 </r>
       <r>   -3.4884    1.0000 </r>
       <r>   -3.4673    1.0000 </r>
       <r>   -3.4303    1.0000 </r>
       <r>   -3.4187    1.0000 </r>
       <r>   -3.4116    1.0000 </r>
       <r>   -3.4066    1.0000 </r>
       <r>   -3.4008    1.0000 </r>
       <r>   -3.3933    1.0000 </r>
       <r>   -3.3763    1.0000 </r>
       <r>   -3.3675    1.0000 </r>
       <r>   -3.3520    1.0000 </r>
       <r>   -3.3470    1.0000 </r>
       <r>   -3.3323    1.0000 </r>
       <r>   -3.3220    1.0000 </r>
       <r>   -3.3169    1.0000 </r>
       <r>   -3.3140    1.0000 </r>
       <r>   -3.3051    1.0000 </r>
       <r>   -3.3018    1.0000 </r>
       <r>   -3.2917    1.0000 </r>
       <r>   -3.2865    1.0000 </r>
       <r>   -3.2787    1.0000 </r>
       <r>   -3.2529    1.0000 </r>
       <r>   -3.2464    1.0000 </r>
       <r>   -3.2389    1.0000 </r>
       <r>   -3.2295    1.0000 </r>
       <r>   -3.2228    1.0000 </r>
       <r>   -3.2153    1.0000 </r>
       <r>   -3.2043    1.0000 </r>
       <r>   -3.1971    1.0000 </r>
       <r>   -3.1928    1.0000 </r>
       <r>   -3.1851    1.0000 </r>
       <r>   -3.1783    1.0000 </r>
       <r>   -3.1662    1.0000 </r>
       <r>   -3.1436    1.0000 </r>
       <r>   -3.1363    1.0000 </r>
       <r>   -3.1310    1.0000 </r>
       <r>   -3.1231    1.0000 </r>
       <r>   -3.1170    1.0000 </r>
       <r>   -3.0965    1.0000 </r>
       <r>   -3.0933    1.0000 </r>
       <r>   -3.0838    1.0000 </r>
       <r>   -3.0754    1.0000 </r>
       <r>   -3.0690    1.0000 </r>
       <r>   -3.0608    1.0000 </r>
       <r>   -3.0553    1.0000 </r>
       <r>   -3.0415    1.0000 </r>
       <r>   -3.0376    1.0000 </r>
       <r>   -3.0227    1.0000 </r>
       <r>   -3.0136    1.0000 </r>
       <r>   -2.9983    1.0000 </r>
       <r>   -2.9822    1.0000 </r>
       <r>   -2.9777    1.0000 </r>
       <r>   -2.9638    1.0000 </r>
       <r>   -2.9497    1.0000 </r>
       <r>   -2.9373    1.0000 </r>
       <r>   -2.9293    1.0000 </r>
       <r>   -2.9034    1.0000 </r>
       <r>   -2.8836    1.0000 </r>
       <r>   -2.8548    1.0000 </r>
       <r>   -2.8386    1.0000 </r>
       <r>   -2.8204    1.0000 </r>
       <r>   -2.8072    1.0000 </r>
       <r>   -2.7915    1.0000 </r>
       <r>   -2.7699    1.0000 </r>
       <r>   -2.7571    1.0000 </r>
       <r>   -2.7490    1.0000 </r>
       <r>   -2.7307    1.0000 </r>
       <r>   -2.7264    1.0000 </r>
       <r>   -2.7149    1.0000 </r>
       <r>   -2.7083    1.0000 </r>
       <r>   -2.6825    1.0000 </r>
       <r>   -2.6757    1.0000 </r>
       <r>   -2.6633    1.0000 </r>
       <r>   -2.6549    1.0000 </r>
       <r>   -2.6520    1.0000 </r>
       <r>   -2.6363    1.0000 </r>
       <r>   -2.6290    1.0000 </r>
       <r>   -2.6204    1.0000 </r>
       <r>   -2.6101    1.0000 </r>
       <r>   -2.6053    1.0000 </r>
       <r>   -2.5993    1.0000 </r>
       <r>   -2.5947    1.0000 </r>
       <r>   -2.5923    1.0000 </r>
       <r>   -2.5790    1.0000 </r>
       <r>   -2.5659    1.0000 </r>
       <r>   -2.5618    1.0000 </r>
       <r>   -2.5560    1.0000 </r>
       <r>   -2.5379    1.0000 </r>
       <r>   -2.5287    1.0000 </r>
       <r>   -2.5226    1.0000 </r>
       <r>   -2.5112    1.0000 </r>
       <r>   -2.5066    1.0000 </r>
       <r>   -2.4875    1.0000 </r>
       <r>   -2.4656    1.0000 </r>
       <r>   -2.4537    1.0000 </r>
       <r>   -2.4324    1.0000 </r>
       <r>   -2.4203    1.0000 </r>
       <r>   -2.4097    1.0000 </r>
       <r>   -2.3954    1.0000 </r>
       <r>   -2.3878    1.0000 </r>
       <r>   -2.3833    1.0000 </r>
       <r>   -2.3766    1.0000 </r>
       <r>   -2.3674    1.0000 </r>
       <r>   -2.3510    1.0000 </r>
       <r>   -2.3371    1.0000 </r>
       <r>   -2.3303    1.0000 </r>
       <r>   -2.3155    1.0000 </r>
       <r>   -2.3018    1.0000 </r>
       <r>   -2.2888    1.0000 </r>
       <r>   -2.2754    1.0000 </r>
       <r>   -2.2646    1.0000 </r>
       <r>   -2.2629    1.0000 </r>
       <r>   -2.2518    1.0000 </r>
       <r>   -2.2444    1.0000 </r>
       <r>   -2.2375    1.0000 </r>
       <r>   -2.2126    1.0000 </r>
       <r>   -2.2054    1.0000 </r>
       <r>   -2.1919    1.0000 </r>
       <r>   -2.1871    1.0000 </r>
       <r>   -2.1817    1.0000 </r>
       <r>   -2.1759    1.0000 </r>
       <r>   -2.1710    1.0000 </r>
       <r>   -2.1618    1.0000 </r>
       <r>   -2.1524    1.0000 </r>
       <r>   -2.1479    1.0000 </r>
       <r>   -2.1396    1.0000 </r>
       <r>   -2.1343    1.0000 </r>
       <r>   -2.1296    1.0000 </r>
       <r>   -2.1180    1.0000 </r>
       <r>   -2.1082    1.0000 </r>
       <r>   -2.0984    1.0000 </r>
       <r>   -2.0881    1.0000 </r>
       <r>   -2.0830    1.0000 </r>
       <r>   -2.0773    1.0000 </r>
       <r>   -2.0743    1.0000 </r>
       <r>   -2.0703    1.0000 </r>
       <r>   -2.0667    1.0000 </r>
       <r>   -2.0603    1.0000 </r>
       <r>   -2.0519    1.0000 </r>
       <r>   -2.0439    1.0000 </r>
       <r>   -2.0370    1.0000 </r>
       <r>   -2.0336    1.0000 </r>
       <r>   -2.0280    1.0000 </r>
       <r>   -2.0235    1.0000 </r>
       <r>   -2.0206    1.0000 </r>
       <r>   -2.0106    1.0000 </r>
       <r>   -2.0067    1.0000 </r>
       <r>   -1.9818    1.0000 </r>
       <r>   -1.9615    1.0000 </r>
       <r>   -1.9327    1.0000 </r>
       <r>   -1.9067    1.0000 </r>
       <r>   -1.9033    1.0000 </r>
       <r>   -1.8902    1.0000 </r>
       <r>   -1.8707    1.0000 </r>
       <r>   -1.8510    1.0000 </r>
       <r>   -1.7674    1.0000 </r>
       <r>   -1.6949    1.0000 </r>
       <r>   -1.6434    1.0000 </r>
       <r>   -1.5218    1.0000 </r>
       <r>   -1.5048    1.0000 </r>
       <r>   -1.4125    1.0000 </r>
       <r>   -1.2838    1.0000 </r>
       <r>   -1.1246    1.0000 </r>
       <r>   -0.9039    1.0000 </r>
       <r>   -0.8169    1.0000 </r>
       <r>   -0.6410    1.0035 </r>
       <r>   -0.5545    1.0328 </r>
       <r>   -0.4298    0.6041 </r>
       <r>   -0.4163    0.4905 </r>
       <r>   -0.4050    0.3956 </r>
       <r>   -0.3875    0.2591 </r>
       <r>   -0.2660   -0.0270 </r>
       <r>   -0.1151   -0.0001 </r>
       <r>    0.1328   -0.0000 </r>
       <r>    0.3564   -0.0000 </r>
       <r>    0.6143   -0.0000 </r>
       <r>    0.7058   -0.0000 </r>
       <r>    0.7170   -0.0000 </r>
       <r>    0.7737   -0.0000 </r>
       <r>    0.9725   -0.0000 </r>
       <r>    1.0170   -0.0000 </r>
       <r>    1.2281   -0.0000 </r>
       <r>    1.2940   -0.0000 </r>
       <r>    1.4442   -0.0000 </r>
       <r>    1.5860   -0.0000 </r>
       <r>    1.7612   -0.0000 </r>
       <r>    1.8233   -0.0000 </r>
       <r>    1.9638   -0.0000 </r>
       <r>    2.0090   -0.0000 </r>
       <r>    2.0758   -0.0000 </r>
       <r>    2.5620    0.0000 </r>
       <r>    2.6187    0.0000 </r>
       <r>    2.7351    0.0000 </r>
       <r>    2.9085    0.0000 </r>
       <r>    3.1600    0.0000 </r>
       <r>    3.2231    0.0000 </r>
       <r>    3.6444    0.0000 </r>
       <r>    3.7033    0.0000 </r>
       <r>    3.7504    0.0000 </r>
       <r>    3.8581    0.0000 </r>
       <r>    4.0988    0.0000 </r>
       <r>    4.3201    0.0000 </r>
       <r>    4.4750    0.0000 </r>
       <r>    4.5186    0.0000 </r>
       <r>    4.5789    0.0000 </r>
       <r>    4.6861    0.0000 </r>
       <r>    4.7616    0.0000 </r>
       <r>    4.9142    0.0000 </r>
       <r>    4.9748    0.0000 </r>
       <r>    5.0797    0.0000 </r>
       <r>    5.0885    0.0000 </r>
       <r>    5.1445    0.0000 </r>
       <r>    5.1748    0.0000 </r>
       <r>    5.2353    0.0000 </r>
       <r>    5.3585    0.0000 </r>
       <r>    5.4069    0.0000 </r>
       <r>    5.5358    0.0000 </r>
       <r>    5.5730    0.0000 </r>
       <r>    5.6826    0.0000 </r>
       <r>    5.8003    0.0000 </r>
       <r>    5.8373    0.0000 </r>
       <r>    5.9211    0.0000 </r>
       <r>    5.9731    0.0000 </r>
       <r>    6.1086    0.0000 </r>
       <r>    6.2401    0.0000 </r>
      </set>
      <set comment="kpoint 3">
       <r>  -15.6414    1.0000 </r>
       <r>   -9.0027    1.0000 </r>
       <r>   -8.3644    1.0000 </r>
       <r>   -7.8372    1.0000 </r>
       <r>   -7.7364    1.0000 </r>
       <r>   -7.4972    1.0000 </r>
       <r>   -6.8830    1.0000 </r>
       <r>   -6.6462    1.0000 </r>
       <r>   -6.5946    1.0000 </r>
       <r>   -6.3271    1.0000 </r>
       <r>   -6.2048    1.0000 </r>
       <r>   -5.9682    1.0000 </r>
       <r>   -5.8061    1.0000 </r>
       <r>   -5.7600    1.0000 </r>
       <r>   -5.7145    1.0000 </r>
       <r>   -5.5298    1.0000 </r>
       <r>   -5.4780    1.0000 </r>
       <r>   -5.3185    1.0000 </r>
       <r>   -5.2802    1.0000 </r>
       <r>   -5.2292    1.0000 </r>
       <r>   -5.2265    1.0000 </r>
       <r>   -5.1860    1.0000 </r>
       <r>   -5.1075    1.0000 </r>
       <r>   -5.0832    1.0000 </r>
       <r>   -5.0813    1.0000 </r>
       <r>   -5.0545    1.0000 </r>
       <r>   -5.0414    1.0000 </r>
       <r>   -4.9903    1.0000 </r>
       <r>   -4.9432    1.0000 </r>
       <r>   -4.8843    1.0000 </r>
       <r>   -4.8422    1.0000 </r>
       <r>   -4.8236    1.0000 </r>
       <r>   -4.7868    1.0000 </r>
       <r>   -4.7565    1.0000 </r>
       <r>   -4.7069    1.0000 </r>
       <r>   -4.6885    1.0000 </r>
       <r>   -4.6562    1.0000 </r>
       <r>   -4.6406    1.0000 </r>
       <r>   -4.6204    1.0000 </r>
       <r>   -4.6108    1.0000 </r>
       <r>   -4.6053    1.0000 </r>
       <r>   -4.5786    1.0000 </r>
       <r>   -4.5460    1.0000 </r>
       <r>   -4.5381    1.0000 </r>
       <r>   -4.5024    1.0000 </r>
       <r>   -4.4988    1.0000 </r>
       <r>   -4.4890    1.0000 </r>
       <r>   -4.4865    1.0000 </r>
       <r>   -4.4442    1.0000 </r>
       <r>   -4.4011    1.0000 </r>
       <r>   -4.3845    1.0000 </r>
       <r>   -4.3678    1.0000 </r>
       <r>   -4.3487    1.0000 </r>
       <r>   -4.3217    1.0000 </r>
       <r>   -4.3095    1.0000 </r>
       <r>   -4.2489    1.0000 </r>
       <r>   -4.2023    1.0000 </r>
       <r>   -4.1951    1.0000 </r>
       <r>   -4.1828    1.0000 </r>
       <r>   -4.1500    1.0000 </r>
       <r>   -4.1360    1.0000 </r>
       <r>   -4.1180    1.0000 </r>
       <r>   -4.1158    1.0000 </r>
       <r>   -4.0456    1.0000 </r>
       <r>   -3.9930    1.0000 </r>
       <r>   -3.9799    1.0000 </r>
       <r>   -3.9698    1.0000 </r>
       <r>   -3.9677    1.0000 </r>
       <r>   -3.9548    1.0000 </r>
       <r>   -3.9353    1.0000 </r>
       <r>   -3.9330    1.0000 </r>
       <r>   -3.9268    1.0000 </r>
       <r>   -3.9239    1.0000 </r>
       <r>   -3.9078    1.0000 </r>
       <r>   -3.9005    1.0000 </r>
       <r>   -3.8783    1.0000 </r>
       <r>   -3.8743    1.0000 </r>
       <r>   -3.8413    1.0000 </r>
       <r>   -3.8341    1.0000 </r>
       <r>   -3.8237    1.0000 </r>
       <r>   -3.7955    1.0000 </r>
       <r>   -3.7546    1.0000 </r>
       <r>   -3.7297    1.0000 </r>
       <r>   -3.6985    1.0000 </r>
       <r>   -3.6915    1.0000 </r>
       <r>   -3.6791    1.0000 </r>
       <r>   -3.6498    1.0000 </r>
       <r>   -3.6419    1.0000 </r>
       <r>   -3.6188    1.0000 </r>
       <r>   -3.6163    1.0000 </r>
       <r>   -3.5982    1.0000 </r>
       <r>   -3.5817    1.0000 </r>
       <r>   -3.5754    1.0000 </r>
       <r>   -3.5608    1.0000 </r>
       <r>   -3.5493    1.0000 </r>
       <r>   -3.5422    1.0000 </r>
       <r>   -3.5337    1.0000 </r>
       <r>   -3.5179    1.0000 </r>
       <r>   -3.4975    1.0000 </r>
       <r>   -3.4733    1.0000 </r>
       <r>   -3.4635    1.0000 </r>
       <r>   -3.4428    1.0000 </r>
       <r>   -3.4377    1.0000 </r>
       <r>   -3.4071    1.0000 </r>
       <r>   -3.4049    1.0000 </r>
       <r>   -3.3977    1.0000 </r>
       <r>   -3.3910    1.0000 </r>
       <r>   -3.3757    1.0000 </r>
       <r>   -3.3734    1.0000 </r>
       <r>   -3.3549    1.0000 </r>
       <r>   -3.3443    1.0000 </r>
       <r>   -3.3405    1.0000 </r>
       <r>   -3.3321    1.0000 </r>
       <r>   -3.3260    1.0000 </r>
       <r>   -3.3144    1.0000 </r>
       <r>   -3.3115    1.0000 </r>
       <r>   -3.2907    1.0000 </r>
       <r>   -3.2842    1.0000 </r>
       <r>   -3.2791    1.0000 </r>
       <r>   -3.2669    1.0000 </r>
       <r>   -3.2516    1.0000 </r>
       <r>   -3.2504    1.0000 </r>
       <r>   -3.2381    1.0000 </r>
       <r>   -3.2248    1.0000 </r>
       <r>   -3.2205    1.0000 </r>
       <r>   -3.2099    1.0000 </r>
       <r>   -3.2001    1.0000 </r>
       <r>   -3.1980    1.0000 </r>
       <r>   -3.1933    1.0000 </r>
       <r>   -3.1889    1.0000 </r>
       <r>   -3.1726    1.0000 </r>
       <r>   -3.1710    1.0000 </r>
       <r>   -3.1504    1.0000 </r>
       <r>   -3.1340    1.0000 </r>
       <r>   -3.1297    1.0000 </r>
       <r>   -3.1203    1.0000 </r>
       <r>   -3.1103    1.0000 </r>
       <r>   -3.1066    1.0000 </r>
       <r>   -3.0990    1.0000 </r>
       <r>   -3.0739    1.0000 </r>
       <r>   -3.0730    1.0000 </r>
       <r>   -3.0633    1.0000 </r>
       <r>   -3.0549    1.0000 </r>
       <r>   -3.0501    1.0000 </r>
       <r>   -3.0495    1.0000 </r>
       <r>   -3.0361    1.0000 </r>
       <r>   -3.0241    1.0000 </r>
       <r>   -3.0074    1.0000 </r>
       <r>   -2.9918    1.0000 </r>
       <r>   -2.9881    1.0000 </r>
       <r>   -2.9752    1.0000 </r>
       <r>   -2.9652    1.0000 </r>
       <r>   -2.9596    1.0000 </r>
       <r>   -2.9449    1.0000 </r>
       <r>   -2.9331    1.0000 </r>
       <r>   -2.9135    1.0000 </r>
       <r>   -2.8915    1.0000 </r>
       <r>   -2.8490    1.0000 </r>
       <r>   -2.8317    1.0000 </r>
       <r>   -2.8188    1.0000 </r>
       <r>   -2.8154    1.0000 </r>
       <r>   -2.7955    1.0000 </r>
       <r>   -2.7769    1.0000 </r>
       <r>   -2.7531    1.0000 </r>
       <r>   -2.7476    1.0000 </r>
       <r>   -2.7314    1.0000 </r>
       <r>   -2.7275    1.0000 </r>
       <r>   -2.7168    1.0000 </r>
       <r>   -2.6973    1.0000 </r>
       <r>   -2.6814    1.0000 </r>
       <r>   -2.6782    1.0000 </r>
       <r>   -2.6744    1.0000 </r>
       <r>   -2.6543    1.0000 </r>
       <r>   -2.6441    1.0000 </r>
       <r>   -2.6415    1.0000 </r>
       <r>   -2.6283    1.0000 </r>
       <r>   -2.6222    1.0000 </r>
       <r>   -2.6142    1.0000 </r>
       <r>   -2.6124    1.0000 </r>
       <r>   -2.6025    1.0000 </r>
       <r>   -2.5931    1.0000 </r>
       <r>   -2.5868    1.0000 </r>
       <r>   -2.5759    1.0000 </r>
       <r>   -2.5680    1.0000 </r>
       <r>   -2.5661    1.0000 </r>
       <r>   -2.5589    1.0000 </r>
       <r>   -2.5397    1.0000 </r>
       <r>   -2.5320    1.0000 </r>
       <r>   -2.5281    1.0000 </r>
       <r>   -2.5109    1.0000 </r>
       <r>   -2.4967    1.0000 </r>
       <r>   -2.4958    1.0000 </r>
       <r>   -2.4648    1.0000 </r>
       <r>   -2.4301    1.0000 </r>
       <r>   -2.4280    1.0000 </r>
       <r>   -2.4203    1.0000 </r>
       <r>   -2.4138    1.0000 </r>
       <r>   -2.3961    1.0000 </r>
       <r>   -2.3946    1.0000 </r>
       <r>   -2.3892    1.0000 </r>
       <r>   -2.3783    1.0000 </r>
       <r>   -2.3508    1.0000 </r>
       <r>   -2.3505    1.0000 </r>
       <r>   -2.3356    1.0000 </r>
       <r>   -2.3176    1.0000 </r>
       <r>   -2.3161    1.0000 </r>
       <r>   -2.3032    1.0000 </r>
       <r>   -2.2840    1.0000 </r>
       <r>   -2.2754    1.0000 </r>
       <r>   -2.2677    1.0000 </r>
       <r>   -2.2622    1.0000 </r>
       <r>   -2.2567    1.0000 </r>
       <r>   -2.2454    1.0000 </r>
       <r>   -2.2383    1.0000 </r>
       <r>   -2.2136    1.0000 </r>
       <r>   -2.1982    1.0000 </r>
       <r>   -2.1915    1.0000 </r>
       <r>   -2.1854    1.0000 </r>
       <r>   -2.1771    1.0000 </r>
       <r>   -2.1724    1.0000 </r>
       <r>   -2.1675    1.0000 </r>
       <r>   -2.1664    1.0000 </r>
       <r>   -2.1569    1.0000 </r>
       <r>   -2.1431    1.0000 </r>
       <r>   -2.1333    1.0000 </r>
       <r>   -2.1317    1.0000 </r>
       <r>   -2.1262    1.0000 </r>
       <r>   -2.1215    1.0000 </r>
       <r>   -2.1048    1.0000 </r>
       <r>   -2.1038    1.0000 </r>
       <r>   -2.0884    1.0000 </r>
       <r>   -2.0808    1.0000 </r>
       <r>   -2.0779    1.0000 </r>
       <r>   -2.0704    1.0000 </r>
[...]
       <r>    4.4714    0.0000 </r>
       <r>    4.5404    0.0000 </r>
       <r>    4.5868    0.0000 </r>
       <r>    4.6410    0.0000 </r>
       <r>    4.6765    0.0000 </r>
       <r>    4.9558    0.0000 </r>
       <r>    4.9884    0.0000 </r>
       <r>    5.0392    0.0000 </r>
       <r>    5.1011    0.0000 </r>
       <r>    5.1152    0.0000 </r>
       <r>    5.1774    0.0000 </r>
       <r>    5.2210    0.0000 </r>
       <r>    5.3375    0.0000 </r>
       <r>    5.5360    0.0000 </r>
       <r>    5.6115    0.0000 </r>
       <r>    5.6314    0.0000 </r>
       <r>    5.7791    0.0000 </r>
       <r>    5.9054    0.0000 </r>
       <r>    5.9318    0.0000 </r>
       <r>    5.9572    0.0000 </r>
       <r>    5.9872    0.0000 </r>
       <r>    6.0466    0.0000 </r>
       <r>    6.1163    0.0000 </r>
      </set>
     </set>
    </set>
   </array>
  </eigenvalues>
  <separator name="orbital magnetization" >
   <v name="MAGDIPOLOUT">      0.00000000      0.00000000      0.00000000</v>
  </separator>
  <dos>
   <i name="efermi">     -0.41742396 </i>
   <total>
    <array>
     <dimension dim="1">gridpoints</dimension>
     <dimension dim="2">spin</dimension>
     <field>energy</field>
     <field>total</field>
     <field>integrated</field>
     <set>
      <set comment="spin 1">
       <r>   -16.7480     0.0000     0.0000 </r>
       <r>   -16.6668     0.0000     0.0000 </r>
       <r>   -16.5857     0.0000     0.0000 </r>
       <r>   -16.5045    -0.0000    -0.0000 </r>
       <r>   -16.4234    -0.0000    -0.0000 </r>
       <r>   -16.3423    -0.0000    -0.0000 </r>
       <r>   -16.2611    -0.0000    -0.0000 </r>
       <r>   -16.1800    -0.0000    -0.0000 </r>
       <r>   -16.0988    -0.0000    -0.0000 </r>
       <r>   -16.0177    -0.0000    -0.0000 </r>
       <r>   -15.9365    -0.0030    -0.0002 </r>
       <r>   -15.8554    -0.1192    -0.0099 </r>
       <r>   -15.7742    -0.7164    -0.0681 </r>
       <r>   -15.6931     3.8156     0.2416 </r>
       <r>   -15.6120    15.2056     1.4754 </r>
       <r>   -15.5308     7.2761     2.0658 </r>
       <r>   -15.4497    -0.5565     2.0207 </r>
       <r>   -15.3685    -0.2452     2.0008 </r>
       <r>   -15.2874    -0.0096     2.0000 </r>
       <r>   -15.2062    -0.0001     2.0000 </r>
       <r>   -15.1251    -0.0000     2.0000 </r>
       <r>   -15.0439    -0.0000     2.0000 </r>
       <r>   -14.9628    -0.0000     2.0000 </r>
       <r>   -14.8816     0.0000     2.0000 </r>
       <r>   -14.8005     0.0000     2.0000 </r>
       <r>   -14.7194     0.0000     2.0000 </r>
       <r>   -14.6382     0.0000     2.0000 </r>
       <r>   -14.5571     0.0000     2.0000 </r>
       <r>   -14.4759     0.0000     2.0000 </r>
       <r>   -14.3948     0.0000     2.0000 </r>
       <r>   -14.3136     0.0000     2.0000 </r>
       <r>   -14.2325     0.0000     2.0000 </r>
       <r>   -14.1513     0.0000     2.0000 </r>
       <r>   -14.0702     0.0000     2.0000 </r>
       <r>   -13.9890     0.0000     2.0000 </r>
       <r>   -13.9079     0.0000     2.0000 </r>
       <r>   -13.8268     0.0000     2.0000 </r>
       <r>   -13.7456     0.0000     2.0000 </r>
       <r>   -13.6645     0.0000     2.0000 </r>
       <r>   -13.5833     0.0000     2.0000 </r>
       <r>   -13.5022     0.0000     2.0000 </r>
       <r>   -13.4210     0.0000     2.0000 </r>
       <r>   -13.3399     0.0000     2.0000 </r>
       <r>   -13.2587     0.0000     2.0000 </r>
       <r>   -13.1776     0.0000     2.0000 </r>
       <r>   -13.0965     0.0000     2.0000 </r>
       <r>   -13.0153     0.0000     2.0000 </r>
       <r>   -12.9342     0.0000     2.0000 </r>
       <r>   -12.8530     0.0000     2.0000 </r>
       <r>   -12.7719     0.0000     2.0000 </r>
       <r>   -12.6907     0.0000     2.0000 </r>
       <r>   -12.6096     0.0000     2.0000 </r>
       <r>   -12.5284     0.0000     2.0000 </r>
       <r>   -12.4473     0.0000     2.0000 </r>
       <r>   -12.3661     0.0000     2.0000 </r>
       <r>   -12.2850     0.0000     2.0000 </r>
       <r>   -12.2039     0.0000     2.0000 </r>
       <r>   -12.1227     0.0000     2.0000 </r>
       <r>   -12.0416     0.0000     2.0000 </r>
       <r>   -11.9604     0.0000     2.0000 </r>
       <r>   -11.8793     0.0000     2.0000 </r>
       <r>   -11.7981     0.0000     2.0000 </r>
       <r>   -11.7170     0.0000     2.0000 </r>
       <r>   -11.6358     0.0000     2.0000 </r>
       <r>   -11.5547     0.0000     2.0000 </r>
       <r>   -11.4735     0.0000     2.0000 </r>
       <r>   -11.3924     0.0000     2.0000 </r>
       <r>   -11.3113     0.0000     2.0000 </r>
       <r>   -11.2301     0.0000     2.0000 </r>
       <r>   -11.1490     0.0000     2.0000 </r>
       <r>   -11.0678     0.0000     2.0000 </r>
       <r>   -10.9867     0.0000     2.0000 </r>
       <r>   -10.9055     0.0000     2.0000 </r>
       <r>   -10.8244     0.0000     2.0000 </r>
       <r>   -10.7432     0.0000     2.0000 </r>
       <r>   -10.6621     0.0000     2.0000 </r>
       <r>   -10.5810     0.0000     2.0000 </r>
       <r>   -10.4998     0.0000     2.0000 </r>
       <r>   -10.4187     0.0000     2.0000 </r>
       <r>   -10.3375     0.0000     2.0000 </r>
       <r>   -10.2564     0.0000     2.0000 </r>
       <r>   -10.1752     0.0000     2.0000 </r>
       <r>   -10.0941    -0.0000     2.0000 </r>
       <r>   -10.0129    -0.0000     2.0000 </r>
       <r>    -9.9318    -0.0000     2.0000 </r>
       <r>    -9.8506    -0.0000     2.0000 </r>
       <r>    -9.7695    -0.0000     2.0000 </r>
       <r>    -9.6884    -0.0000     2.0000 </r>
       <r>    -9.6072    -0.0000     2.0000 </r>
       <r>    -9.5261    -0.0002     2.0000 </r>
       <r>    -9.4449    -0.0103     1.9991 </r>
       <r>    -9.3638    -0.0768     1.9929 </r>
       <r>    -9.2826     0.3210     2.0190 </r>
       <r>    -9.2015     1.5101     2.1415 </r>
       <r>    -9.1203     0.4968     2.1818 </r>
       <r>    -9.0392     4.0196     2.5080 </r>
       <r>    -8.9580    10.2630     3.3408 </r>
       <r>    -8.8769     3.2255     3.6025 </r>
       <r>    -8.7958    -0.5363     3.5590 </r>
       <r>    -8.7146    -0.5092     3.5177 </r>
       <r>    -8.6335     1.7593     3.6604 </r>
       <r>    -8.5523     9.0832     4.3975 </r>
       <r>    -8.4712     5.8187     4.8696 </r>
       <r>    -8.3900     5.1635     5.2886 </r>
       <r>    -8.3089     9.7913     6.0831 </r>
       <r>    -8.2277     2.2591     6.2665 </r>
       <r>    -8.1466    -0.4740     6.2280 </r>
       <r>    -8.0655    -0.1463     6.2161 </r>
       <r>    -7.9843    -0.5298     6.1731 </r>
       <r>    -7.9032     2.0314     6.3380 </r>
       <r>    -7.8220    11.1835     7.2455 </r>
       <r>    -7.7409    13.3183     8.3262 </r>
       <r>    -7.6597     9.4572     9.0936 </r>
       <r>    -7.5786     4.5975     9.4667 </r>
       <r>    -7.4974     8.6663    10.1699 </r>
       <r>    -7.4163     9.0478    10.9041 </r>
       <r>    -7.3351     8.1759    11.5675 </r>
       <r>    -7.2540     7.2946    12.1594 </r>
       <r>    -7.1729     1.1064    12.2492 </r>
       <r>    -7.0917    -0.3856    12.2179 </r>
       <r>    -7.0106    -0.6243    12.1673 </r>
       <r>    -6.9294     2.8244    12.3965 </r>
       <r>    -6.8483    12.3252    13.3966 </r>
       <r>    -6.7671    12.8340    14.4380 </r>
       <r>    -6.6860    11.7591    15.3922 </r>
       <r>    -6.6048    24.5278    17.3825 </r>
       <r>    -6.5237    16.1981    18.6969 </r>
       <r>    -6.4425    -0.2845    18.6738 </r>
       <r>    -6.3614     4.1722    19.0124 </r>
       <r>    -6.2803    12.9299    20.0616 </r>
       <r>    -6.1991    14.5977    21.2461 </r>
       <r>    -6.1180     6.6513    21.7858 </r>
       <r>    -6.0368     0.5416    21.8298 </r>
       <r>    -5.9557     7.7390    22.4578 </r>
       <r>    -5.8745     6.9972    23.0256 </r>
       <r>    -5.7934    13.9176    24.1549 </r>
       <r>    -5.7122    37.4191    27.1913 </r>
       <r>    -5.6311    35.8594    30.1011 </r>
       <r>    -5.5500    19.5007    31.6835 </r>
       <r>    -5.4688    17.2061    33.0797 </r>
       <r>    -5.3877    10.8522    33.9603 </r>
       <r>    -5.3065    28.8293    36.2996 </r>
       <r>    -5.2254    53.5994    40.6490 </r>
       <r>    -5.1442    45.0630    44.3056 </r>
       <r>    -5.0631    62.7765    49.3996 </r>
       <r>    -4.9819    67.2976    54.8605 </r>
       <r>    -4.9008    53.4705    59.1994 </r>
       <r>    -4.8196    50.3798    63.2875 </r>
       <r>    -4.7385    53.3985    67.6205 </r>
       <r>    -4.6574    81.5223    74.2356 </r>
       <r>    -4.5762   105.8311    82.8233 </r>
       <r>    -4.4951    97.7469    90.7550 </r>
       <r>    -4.4139    85.9750    97.7315 </r>
       <r>    -4.3328    98.2348   105.7027 </r>
       <r>    -4.2516    82.9497   112.4337 </r>
       <r>    -4.1705    73.5405   118.4012 </r>
       <r>    -4.0893    81.7045   125.0311 </r>
       <r>    -4.0082    67.3248   130.4942 </r>
       <r>    -3.9270   133.8135   141.3525 </r>
       <r>    -3.8459   160.6479   154.3883 </r>
       <r>    -3.7648    99.4351   162.4570 </r>
       <r>    -3.6836    84.7492   169.3340 </r>
       <r>    -3.6025   130.7279   179.9419 </r>
       <r>    -3.5213   174.7263   194.1201 </r>
       <r>    -3.4402   145.7508   205.9471 </r>
       <r>    -3.3590   161.8731   219.0823 </r>
       <r>    -3.2779   211.7713   236.2665 </r>
       <r>    -3.1967   226.4482   254.6417 </r>
       <r>    -3.1156   232.8821   273.5389 </r>
       <r>    -3.0345   216.4933   291.1063 </r>
       <r>    -2.9533   147.1361   303.0457 </r>
       <r>    -2.8722   110.7933   312.0360 </r>
       <r>    -2.7910   126.5406   322.3042 </r>
       <r>    -2.7099   155.4446   334.9178 </r>
       <r>    -2.6287   205.8154   351.6187 </r>
       <r>    -2.5476   239.2267   371.0308 </r>
       <r>    -2.4664   195.2597   386.8752 </r>
       <r>    -2.3853   159.5548   399.8223 </r>
       <r>    -2.3041   163.6655   413.1029 </r>
       <r>    -2.2230   185.8783   428.1861 </r>
       <r>    -2.1419   241.4046   447.7749 </r>
       <r>    -2.0607   300.2681   472.1402 </r>
       <r>    -1.9796   254.0544   492.7555 </r>
       <r>    -1.8984   112.5770   501.8905 </r>
       <r>    -1.8173    58.4491   506.6334 </r>
       <r>    -1.7361    36.2908   509.5782 </r>
       <r>    -1.6550    30.2461   512.0326 </r>
       <r>    -1.5738    27.3797   514.2543 </r>
       <r>    -1.4927    31.9723   516.8487 </r>
       <r>    -1.4115    26.2333   518.9774 </r>
       <r>    -1.3304    17.7969   520.4215 </r>
       <r>    -1.2493    16.1644   521.7332 </r>
       <r>    -1.1681     9.7095   522.5211 </r>
       <r>    -1.0870    10.5638   523.3783 </r>
       <r>    -1.0058    12.3328   524.3790 </r>
       <r>    -0.9247    11.5561   525.3167 </r>
       <r>    -0.8435    18.3092   526.8024 </r>
       <r>    -0.7624    23.1125   528.6779 </r>
       <r>    -0.6812    10.4250   529.5239 </r>
       <r>    -0.6001    10.3717   530.3655 </r>
       <r>    -0.5190    14.3585   531.5306 </r>
       <r>    -0.4378    29.5372   533.9274 </r>
       <r>    -0.3567    52.9652   538.2253 </r>
       <r>    -0.2755    24.6442   540.2250 </r>
       <r>    -0.1944    11.6870   541.1734 </r>
       <r>    -0.1132    19.3839   542.7463 </r>
       <r>    -0.0321    13.9470   543.8780 </r>
       <r>     0.0491     5.3768   544.3143 </r>
       <r>     0.1302     9.4485   545.0810 </r>
       <r>     0.2114     7.6224   545.6995 </r>
       <r>     0.2925     3.4932   545.9830 </r>
       <r>     0.3736    10.3376   546.8218 </r>
       <r>     0.4548     6.3142   547.3342 </r>
       <r>     0.5359     6.8263   547.8881 </r>
       <r>     0.6171    17.1631   549.2808 </r>
       <r>     0.6982    26.9003   551.4636 </r>
       <r>     0.7794    33.7167   554.1996 </r>
       <r>     0.8605    18.3759   555.6907 </r>
       <r>     0.9417    12.2668   556.6861 </r>
       <r>     1.0228    28.2664   558.9798 </r>
       <r>     1.1040    18.7258   560.4993 </r>
       <r>     1.1851     6.8790   561.0575 </r>
       <r>     1.2662    16.6174   562.4059 </r>
       <r>     1.3474    17.4134   563.8189 </r>
       <r>     1.4285    10.7774   564.6935 </r>
       <r>     1.5097    13.4127   565.7818 </r>
       <r>     1.5908    10.6586   566.6467 </r>
       <r>     1.6720    10.3368   567.4855 </r>
       <r>     1.7531    21.5731   569.2361 </r>
       <r>     1.8343    27.1332   571.4378 </r>
       <r>     1.9154    14.5104   572.6152 </r>
       <r>     1.9965    20.5696   574.2844 </r>
       <r>     2.0777    24.6972   576.2884 </r>
       <r>     2.1588    11.6365   577.2327 </r>
       <r>     2.2400     3.8220   577.5428 </r>
       <r>     2.3211     2.5032   577.7459 </r>
       <r>     2.4023     5.3538   578.1804 </r>
       <r>     2.4834    10.5341   579.0352 </r>
       <r>     2.5646    16.2687   580.3553 </r>
       <r>     2.6457    21.1431   582.0709 </r>
       <r>     2.7269    14.2424   583.2266 </r>
       <r>     2.8080    10.6370   584.0898 </r>
       <r>     2.8891     9.7202   584.8785 </r>
       <r>     2.9703     8.9764   585.6069 </r>
       <r>     3.0514     6.3989   586.1262 </r>
       <r>     3.1326     8.7482   586.8360 </r>
       <r>     3.2137    14.6461   588.0245 </r>
       <r>     3.2949    12.7431   589.0585 </r>
       <r>     3.3760    11.7583   590.0127 </r>
       <r>     3.4572     7.8249   590.6476 </r>
       <r>     3.5383     4.8382   591.0402 </r>
       <r>     3.6195     9.9688   591.8491 </r>
       <r>     3.7006    20.8932   593.5445 </r>
       <r>     3.7817    25.6229   595.6237 </r>
       <r>     3.8629    19.6094   597.2149 </r>
       <r>     3.9440    11.8008   598.1725 </r>
       <r>     4.0252     4.3708   598.5271 </r>
       <r>     4.1063     9.2360   599.2766 </r>
       <r>     4.1875     5.5706   599.7286 </r>
       <r>     4.2686     6.4553   600.2524 </r>
       <r>     4.3498    18.7024   601.7700 </r>
       <r>     4.4309    14.2736   602.9283 </r>
       <r>     4.5120    21.8022   604.6974 </r>
       <r>     4.5932    30.8501   607.2008 </r>
       <r>     4.6743    26.3619   609.3399 </r>
       <r>     4.7555    19.5376   610.9253 </r>
       <r>     4.8366    11.2668   611.8395 </r>
       <r>     4.9178    11.3921   612.7640 </r>
       <r>     4.9989    22.1123   614.5583 </r>
       <r>     5.0801    35.1143   617.4076 </r>
       <r>     5.1612    44.7858   621.0418 </r>
       <r>     5.2424    32.5644   623.6842 </r>
       <r>     5.3235    18.9940   625.2255 </r>
       <r>     5.4046    21.2616   626.9508 </r>
       <r>     5.4858    19.3187   628.5184 </r>
       <r>     5.5669    28.6957   630.8469 </r>
       <r>     5.6481    30.1983   633.2973 </r>
       <r>     5.7292    16.3817   634.6266 </r>
       <r>     5.8104    17.7754   636.0690 </r>
       <r>     5.8915    28.3921   638.3729 </r>
       <r>     5.9727    31.6225   640.9389 </r>
       <r>     6.0538    24.2988   642.9106 </r>
       <r>     6.1350    15.3599   644.1570 </r>
       <r>     6.2161    12.5218   645.1731 </r>
       <r>     6.2972    14.6705   646.3635 </r>
       <r>     6.3784    12.4043   647.3701 </r>
       <r>     6.4595     6.0068   647.8575 </r>
       <r>     6.5407     1.6747   647.9934 </r>
       <r>     6.6218     0.1909   648.0089 </r>
       <r>     6.7030    -0.0959   648.0011 </r>
       <r>     6.7841    -0.0135   648.0000 </r>
       <r>     6.8653    -0.0003   648.0000 </r>
       <r>     6.9464    -0.0000   648.0000 </r>
       <r>     7.0275    -0.0000   648.0000 </r>
       <r>     7.1087    -0.0000   648.0000 </r>
       <r>     7.1898     0.0000   648.0000 </r>
       <r>     7.2710     0.0000   648.0000 </r>
       <r>     7.3521     0.0000   648.0000 </r>
       <r>     7.4333     0.0000   648.0000 </r>
       <r>     7.5144     0.0000   648.0000 </r>
       <r>     7.5956     0.0000   648.0000 </r>
      </set>
     </set>
    </array>
   </total>
  </dos>
 </calculation>
 <structure name="finalpos" >
  <crystal>
   <varray name="basis" >
    <v>      10.11850195       0.00000000       0.00000000 </v>
    <v>      -5.05925097       8.76287974       0.00000000 </v>
    <v>       0.00000000       0.00000000      18.58887505 </v>
   </varray>
   <i name="volume">   1648.22379336 </i>
   <varray name="rec_basis" >
    <v>       0.09882886       0.05705887      -0.00000000 </v>
    <v>       0.00000000       0.11411774      -0.00000000 </v>
    <v>       0.00000000       0.00000000       0.05379562 </v>
   </varray>
  </crystal>
  <varray name="positions" >
   <v>       0.99895999       0.00227913       0.61194661 </v>
   <v>       0.00035605       0.25069285       0.61520217 </v>
   <v>       0.99122698       0.49622431       0.60978119 </v>
   <v>       0.99601494       0.74998253       0.61129381 </v>
   <v>       0.24412919       0.00583454       0.61765191 </v>
   <v>       0.25063443       0.25247159       0.61191696 </v>
   <v>       0.25490390       0.49620421       0.60980535 </v>
   <v>       0.25220411       0.75440494       0.60777348 </v>
   <v>       0.51173854       0.00583831       0.61761219 </v>
   <v>       0.50348135       0.25663123       0.61152381 </v>
   <v>       0.50153166       0.50153566       0.61323699 </v>
   <v>       0.50392419       0.74997502       0.61129910 </v>
   <v>       0.75332191       0.00231454       0.61194531 </v>
   <v>       0.75184164       0.25248356       0.61191434 </v>
   <v>       0.74997083       0.50151361       0.61323481 </v>
   <v>       0.75054999       0.75120694       0.61330030 </v>
   <v>       0.08332860       0.16668598       0.38888246 </v>
   <v>       0.08331514       0.41662990       0.38880445 </v>
   <v>       0.08329656       0.66668218       0.38877180 </v>
   <v>       0.08330462       0.91671532       0.38881953 </v>
   <v>       0.33332178       0.16673118       0.38887295 </v>
   <v>       0.33335814       0.41664609       0.38882354 </v>
   <v>       0.33338544       0.66668208       0.38877176 </v>
   <v>       0.33337433       0.91674882       0.38878326 </v>
   <v>       0.58340958       0.16673046       0.38887277 </v>
   <v>       0.58335647       0.41667189       0.38886969 </v>
   <v>       0.58338708       0.66668638       0.38882951 </v>
   <v>       0.58341121       0.91671535       0.38881939 </v>
   <v>       0.83335780       0.16668569       0.38888239 </v>
   <v>       0.83328938       0.41664654       0.38882351 </v>
   <v>       0.83329862       0.66668629       0.38883031 </v>
   <v>       0.83338123       0.91674161       0.38888554 </v>
   <v>       0.16661308       0.08355310       0.49996450 </v>
   <v>       0.16654186       0.33305635       0.49974738 </v>
   <v>       0.16666182       0.58332179       0.49944690 </v>
   <v>       0.16639967       0.83372620       0.49947210 </v>
   <v>       0.41681133       0.08362245       0.49982840 </v>
   <v>       0.41666252       0.33333757       0.49997636 </v>
   <v>       0.41711941       0.58348478       0.49964770 </v>
   <v>       0.41732591       0.83372593       0.49947213 </v>
   <v>       0.66694174       0.08355250       0.49996383 </v>
   <v>       0.66667955       0.33334117       0.49997378 </v>
   <v>       0.66664377       0.58336190       0.49992685 </v>
   <v>       0.66687610       0.83344421       0.49990338 </v>
   <v>       0.91672470       0.08344133       0.50002420 </v>
   <v>       0.91651580       0.33305636       0.49974707 </v>
   <v>       0.91636196       0.58348581       0.49964693 </v>
   <v>       0.91656565       0.83344218       0.49990356 </v>
   <v>       0.34642013       0.94271117       0.68215124 </v>
   <v>       0.36319937       0.97611362       0.73476667 </v>
   <v>       0.15801651       0.56627006       0.70590206 </v>
  </varray>
 </structure>
</modeling>
