 running   96 mpi-ranks, with    1 threads/rank, on    1 nodes
 distrk:  each k-point on   96 cores,    1 groups
 distr:  one band on   24 cores,    4 groups
 vasp.6.4.1 05Apr23 (build Jun 16 2023 21:11:36) complex                        
  
 POSCAR found type information on POSCAR CuN H 
 POSCAR found :  3 types and      51 ions
 Reading from existing POTCAR
 scaLAPACK will be used
 Reading from existing POTCAR
 LDA part: xc-table for Pade appr. of Perdew
 POSCAR found type information on POSCAR CuN H 
 POSCAR found :  3 types and      51 ions
 POSCAR, INCAR and KPOINTS ok, starting setup
 FFT: planning ... GRIDC
 FFT: planning ... GRID_SOFT
 FFT: planning ... GRID
 WAVECAR not read
 entering main loop
       N       E                     dE             d eps       ncg     rms          rms(c)
DAV:   1     0.510976491027E+04    0.51098E+04   -0.21908E+05  3240   0.198E+03
DAV:   2     0.569810908424E+03   -0.45400E+04   -0.43853E+04  3240   0.449E+02
DAV:   3    -0.150736747068E+03   -0.72055E+03   -0.66223E+03  3304   0.225E+02
DAV:   4    -0.216847919211E+03   -0.66111E+02   -0.61340E+02  4408   0.805E+01
DAV:   5    -0.221049218785E+03   -0.42013E+01   -0.41234E+01  4816   0.163E+01    0.535E+01
RMM:   6    -0.198534596055E+03    0.22515E+02   -0.49588E+02  3255   0.105E+02    0.321E+01
RMM:   7    -0.178790223855E+03    0.19744E+02   -0.10944E+02  3245   0.537E+01    0.711E+00
RMM:   8    -0.178053596447E+03    0.73663E+00   -0.72389E+00  3492   0.811E+00    0.553E+00
RMM:   9    -0.177774028742E+03    0.27957E+00   -0.26187E+00  3280   0.595E+00    0.299E+00
RMM:  10    -0.177660539413E+03    0.11349E+00   -0.84301E-01  3442   0.305E+00    0.196E+00
RMM:  11    -0.177640752023E+03    0.19787E-01   -0.31415E-01  3291   0.178E+00    0.141E+00
RMM:  12    -0.177614849281E+03    0.25903E-01   -0.19553E-01  3308   0.162E+00    0.707E-01
RMM:  13    -0.177609671599E+03    0.51777E-02   -0.82914E-02  4354   0.648E-01    0.360E-01
RMM:  14    -0.177606812351E+03    0.28592E-02   -0.11949E-02  3330   0.312E-01    0.243E-01
RMM:  15    -0.177603774546E+03    0.30378E-02   -0.50831E-03  3319   0.235E-01    0.203E-01
RMM:  16    -0.177602088621E+03    0.16859E-02   -0.34890E-03  3284   0.228E-01    0.936E-02
RMM:  17    -0.177602025524E+03    0.63097E-04   -0.14306E-03  3405   0.127E-01    0.728E-02
RMM:  18    -0.177602453139E+03   -0.42761E-03   -0.94074E-04  3292   0.898E-02    0.607E-02
RMM:  19    -0.177603173140E+03   -0.72000E-03   -0.64434E-04  3310   0.711E-02    0.656E-02
RMM:  20    -0.177603728021E+03   -0.55488E-03   -0.37676E-04  3282   0.634E-02    0.240E-02
RMM:  21    -0.177604248671E+03   -0.52065E-03   -0.15666E-04  3235   0.317E-02    0.217E-02
RMM:  22    -0.177604709707E+03   -0.46104E-03   -0.94960E-05  3075   0.288E-02    0.121E-02
RMM:  23    -0.177605109834E+03   -0.40013E-03   -0.72443E-05  2685   0.195E-02    0.204E-02
RMM:  24    -0.177605310321E+03   -0.20049E-03   -0.19799E-05  1952   0.161E-02    0.143E-02
RMM:  25    -0.177605593690E+03   -0.28337E-03   -0.20684E-05  1983   0.127E-02    0.559E-03
RMM:  26    -0.177605731105E+03   -0.13742E-03   -0.10012E-05  1940   0.963E-03    0.628E-03
RMM:  27    -0.177605760074E+03   -0.28970E-04   -0.26494E-06  1870   0.597E-03    0.548E-03
RMM:  28    -0.177605832544E+03   -0.72470E-04   -0.53074E-06  1923   0.468E-03    0.241E-03
RMM:  29    -0.177605847851E+03   -0.15307E-04   -0.12713E-06  1855   0.336E-03    0.161E-03
RMM:  30    -0.177605853448E+03   -0.55977E-05   -0.56225E-07  1724   0.211E-03
   1 F= -.17760585E+03 E0= -.17758285E+03  d E =-.177606E+03
 curvature:   0.00 expect dE= 0.000E+00 dE for cont linesearch  0.000E+00
 trial: gam= 0.00000 g(F)=  0.176E-01 g(S)=  0.000E+00 ort = 0.000E+00 (trialstep = 0.100E+01)
 search vector abs. value=  0.176E-01
