Bulk Frequency (Finite Difference)      
           1
    10.118502    0.000000    0.000000
    -5.059251    8.762880    0.000000
     0.000000    0.000000   18.588875
   Cu   N    H 
    48     1     2
Direct configuration=     1
   0.99895999  0.00227913  0.61194661
   0.00035605  0.25069285  0.61520217
   0.99122698  0.49622431  0.60978119
   0.99601494  0.74998253  0.61129381
   0.24412919  0.00583454  0.61765191
   0.25063443  0.25247159  0.61191696
   0.25490390  0.49620421  0.60980535
   0.25220411  0.75440494  0.60777348
   0.51173854  0.00583831  0.61761219
   0.50348135  0.25663123  0.61152381
   0.50153166  0.50153566  0.61323699
   0.50392419  0.74997502  0.61129910
   0.75332191  0.00231454  0.61194531
   0.75184164  0.25248356  0.61191434
   0.74997083  0.50151361  0.61323481
   0.75054999  0.75120694  0.61330030
   0.08332860  0.16668598  0.38888246
   0.08331514  0.41662990  0.38880445
   0.08329656  0.66668218  0.38877180
   0.08330462  0.91671532  0.38881953
   0.33332178  0.16673118  0.38887295
   0.33335814  0.41664609  0.38882354
   0.33338544  0.66668208  0.38877176
   0.33337433  0.91674882  0.38878326
   0.58340958  0.16673046  0.38887277
   0.58335647  0.41667189  0.38886969
   0.58338708  0.66668638  0.38882951
   0.58341121  0.91671535  0.38881939
   0.83335780  0.16668569  0.38888239
   0.83328938  0.41664654  0.38882351
   0.83329862  0.66668629  0.38883031
   0.83338123  0.91674161  0.38888554
   0.16661308  0.08355310  0.49996450
   0.16654186  0.33305635  0.49974738
   0.16666182  0.58332179  0.49944690
   0.16639967  0.83372620  0.49947210
   0.41681133  0.08362245  0.49982840
   0.41666252  0.33333757  0.49997636
   0.41711941  0.58348478  0.49964770
   0.41732591  0.83372593  0.49947213
   0.66694174  0.08355250  0.49996383
   0.66667955  0.33334117  0.49997378
   0.66664377  0.58336190  0.49992685
   0.66687610  0.83344421  0.49990338
   0.91672470  0.08344133  0.50002420
   0.91651580  0.33305636  0.49974707
   0.91636196  0.58348581  0.49964693
   0.91656565  0.83344218  0.49990356
   0.34642013  0.94271117  0.68215124
   0.36319937  0.97611362  0.73476667
   0.15801651  0.56627006  0.70590206
