  51  51   0   0
  0.3231811E+02  0.1011850E-08  0.1011850E-08  0.1858888E-08  0.1500000E-16
  1.000000000000000E-004
  CAR 
 Bulk Frequency (Finite Difference)      
      7.50259932    -16.56022659  301     -0.45380052      1.00000000
    -16.560  0.0000E+00  0.0000E+00
    -16.480  0.0000E+00  0.0000E+00
    -16.400  0.0000E+00  0.0000E+00
    -16.320 -0.1461E-29 -0.1172E-30
    -16.239 -0.6114E-24 -0.4904E-25
    -16.159 -0.6992E-19 -0.5609E-20
    -16.079 -0.2179E-14 -0.1748E-15
    -15.999 -0.1779E-10 -0.1427E-11
    -15.919 -0.4005E-07 -0.3214E-08
    -15.838 -0.2386E-04 -0.1917E-05
    -15.758 -0.3648E-02 -0.2945E-03
    -15.678 -0.1314E+00 -0.1083E-01
    -15.598 -0.7226E+00 -0.6879E-01
    -15.518  0.3948E+01  0.2479E+00
    -15.437  0.1524E+02  0.1470E+01
    -15.357  0.7408E+01  0.2065E+01
    -15.277 -0.5298E+00  0.2022E+01
    -15.197 -0.2640E+00  0.2001E+01
    -15.116 -0.1132E-01  0.2000E+01
    -15.036 -0.1086E-03  0.2000E+01
    -14.956 -0.2636E-06  0.2000E+01
    -14.876 -0.1682E-09  0.2000E+01
    -14.796 -0.2768E-13  0.2000E+01
    -14.715  0.0000E+00  0.2000E+01
    -14.635  0.0000E+00  0.2000E+01
    -14.555  0.0000E+00  0.2000E+01
    -14.475  0.0000E+00  0.2000E+01
    -14.395  0.0000E+00  0.2000E+01
    -14.314  0.0000E+00  0.2000E+01
    -14.234  0.0000E+00  0.2000E+01
    -14.154  0.0000E+00  0.2000E+01
    -14.074  0.0000E+00  0.2000E+01
    -13.994  0.0000E+00  0.2000E+01
    -13.913  0.0000E+00  0.2000E+01
    -13.833  0.0000E+00  0.2000E+01
    -13.753  0.0000E+00  0.2000E+01
    -13.673  0.0000E+00  0.2000E+01
    -13.592  0.0000E+00  0.2000E+01
    -13.512  0.0000E+00  0.2000E+01
    -13.432  0.0000E+00  0.2000E+01
    -13.352  0.0000E+00  0.2000E+01
    -13.272  0.0000E+00  0.2000E+01
    -13.191  0.0000E+00  0.2000E+01
    -13.111  0.0000E+00  0.2000E+01
    -13.031  0.0000E+00  0.2000E+01
    -12.951  0.0000E+00  0.2000E+01
    -12.871  0.0000E+00  0.2000E+01
    -12.790  0.0000E+00  0.2000E+01
    -12.710  0.0000E+00  0.2000E+01
    -12.630  0.0000E+00  0.2000E+01
    -12.550  0.0000E+00  0.2000E+01
    -12.470  0.0000E+00  0.2000E+01
    -12.389  0.0000E+00  0.2000E+01
    -12.309  0.0000E+00  0.2000E+01
    -12.229  0.0000E+00  0.2000E+01
    -12.149  0.0000E+00  0.2000E+01
    -12.068  0.0000E+00  0.2000E+01
    -11.988  0.0000E+00  0.2000E+01
    -11.908  0.0000E+00  0.2000E+01
    -11.828  0.0000E+00  0.2000E+01
    -11.748  0.0000E+00  0.2000E+01
    -11.667  0.0000E+00  0.2000E+01
    -11.587  0.0000E+00  0.2000E+01
    -11.507  0.0000E+00  0.2000E+01
    -11.427  0.0000E+00  0.2000E+01
    -11.347  0.0000E+00  0.2000E+01
    -11.266  0.0000E+00  0.2000E+01
    -11.186  0.0000E+00  0.2000E+01
    -11.106  0.0000E+00  0.2000E+01
    -11.026  0.0000E+00  0.2000E+01
    -10.946  0.0000E+00  0.2000E+01
    -10.865  0.0000E+00  0.2000E+01
    -10.785  0.0000E+00  0.2000E+01
    -10.705  0.0000E+00  0.2000E+01
    -10.625  0.0000E+00  0.2000E+01
    -10.545  0.0000E+00  0.2000E+01
    -10.464  0.0000E+00  0.2000E+01
    -10.384  0.0000E+00  0.2000E+01
    -10.304  0.0000E+00  0.2000E+01
    -10.224  0.0000E+00  0.2000E+01
    -10.143  0.0000E+00  0.2000E+01
    -10.063 -0.2346E-27  0.2000E+01
     -9.983 -0.4814E-22  0.2000E+01
     -9.903 -0.2695E-17  0.2000E+01
     -9.823 -0.3980E-13  0.2000E+01
     -9.742 -0.1621E-09  0.2000E+01
     -9.662 -0.1762E-06  0.2000E+01
     -9.582 -0.4997E-04  0.2000E+01
     -9.502 -0.3514E-02  0.2000E+01
     -9.422 -0.5098E-01  0.1996E+01
     -9.341  0.3628E-01  0.1999E+01
     -9.261  0.1194E+01  0.2094E+01
     -9.181  0.1049E+01  0.2178E+01
     -9.101  0.1331E+01  0.2285E+01
     -9.021  0.9069E+01  0.3013E+01
     -8.940  0.6991E+01  0.3573E+01
     -8.860  0.6244E-01  0.3578E+01
     -8.780 -0.4929E+00  0.3539E+01
     -8.700 -0.1632E+00  0.3526E+01
     -8.619  0.5521E+01  0.3969E+01
     -8.539  0.9280E+01  0.4713E+01
     -8.459  0.3181E+01  0.4968E+01
     -8.379  0.8320E+01  0.5636E+01
     -8.299  0.7405E+01  0.6229E+01
     -8.218  0.2401E+00  0.6249E+01
     -8.138 -0.3092E+00  0.6224E+01
     -8.058 -0.4168E-01  0.6221E+01
     -7.978 -0.3461E+00  0.6193E+01
     -7.898 -0.3396E+00  0.6166E+01
     -7.817  0.8748E+01  0.6867E+01
     -7.737  0.1882E+02  0.8377E+01
     -7.657  0.8644E+01  0.9070E+01
     -7.577  0.4423E+00  0.9106E+01
     -7.497 -0.1040E+01  0.9022E+01
     -7.416  0.9043E+01  0.9748E+01
     -7.336  0.2262E+02  0.1156E+02
     -7.256  0.8979E+01  0.1228E+02
     -7.176 -0.3974E+00  0.1225E+02
     -7.096 -0.3906E+00  0.1222E+02
     -7.015 -0.5866E+00  0.1217E+02
     -6.935  0.1151E+01  0.1226E+02
     -6.855  0.1243E+02  0.1326E+02
     -6.775  0.1669E+02  0.1460E+02
     -6.694  0.1400E+02  0.1572E+02
     -6.614  0.2556E+02  0.1777E+02
     -6.534  0.1212E+02  0.1875E+02
     -6.454 -0.1109E+01  0.1866E+02
     -6.374  0.4413E+01  0.1901E+02
     -6.293  0.1380E+02  0.2012E+02
     -6.213  0.1559E+02  0.2137E+02
     -6.133  0.5531E+01  0.2181E+02
     -6.053 -0.3249E+00  0.2179E+02
     -5.973  0.6527E+01  0.2231E+02
     -5.892  0.8768E+01  0.2301E+02
     -5.812  0.1652E+02  0.2434E+02
     -5.732  0.3866E+02  0.2744E+02
     -5.652  0.3602E+02  0.3033E+02
     -5.572  0.1853E+02  0.3181E+02
     -5.491  0.1715E+02  0.3319E+02
     -5.411  0.7422E+01  0.3378E+02
     -5.331  0.2577E+02  0.3585E+02
     -5.251  0.5923E+02  0.4060E+02
     -5.170  0.4522E+02  0.4423E+02
     -5.090  0.6145E+02  0.4916E+02
     -5.010  0.7122E+02  0.5487E+02
     -4.930  0.5386E+02  0.5919E+02
     -4.850  0.4721E+02  0.6298E+02
     -4.769  0.5286E+02  0.6722E+02
     -4.689  0.8141E+02  0.7375E+02
     -4.609  0.1082E+03  0.8243E+02
     -4.529  0.9750E+02  0.9025E+02
     -4.449  0.8623E+02  0.9716E+02
     -4.368  0.9333E+02  0.1047E+03
     -4.288  0.8349E+02  0.1113E+03
     -4.208  0.7869E+02  0.1177E+03
     -4.128  0.8161E+02  0.1242E+03
     -4.048  0.6490E+02  0.1294E+03
     -3.967  0.1204E+03  0.1391E+03
     -3.887  0.1645E+03  0.1523E+03
     -3.807  0.1092E+03  0.1610E+03
     -3.727  0.8437E+02  0.1678E+03
     -3.647  0.1178E+03  0.1772E+03
     -3.566  0.1708E+03  0.1909E+03
     -3.486  0.1548E+03  0.2034E+03
     -3.406  0.1498E+03  0.2154E+03
     -3.326  0.2025E+03  0.2316E+03
     -3.245  0.2260E+03  0.2497E+03
     -3.165  0.2344E+03  0.2685E+03
     -3.085  0.2256E+03  0.2866E+03
     -3.005  0.1680E+03  0.3001E+03
     -2.925  0.1159E+03  0.3094E+03
     -2.844  0.1173E+03  0.3188E+03
     -2.764  0.1419E+03  0.3302E+03
     -2.684  0.1900E+03  0.3454E+03
     -2.604  0.2390E+03  0.3646E+03
     -2.524  0.2204E+03  0.3823E+03
     -2.443  0.1644E+03  0.3955E+03
     -2.363  0.1574E+03  0.4081E+03
     -2.283  0.1725E+03  0.4219E+03
     -2.203  0.2196E+03  0.4396E+03
     -2.123  0.2821E+03  0.4622E+03
     -2.042  0.2982E+03  0.4861E+03
     -1.962  0.1632E+03  0.4992E+03
     -1.882  0.6785E+02  0.5046E+03
     -1.802  0.4388E+02  0.5081E+03
     -1.721  0.3192E+02  0.5107E+03
     -1.641  0.2939E+02  0.5131E+03
     -1.561  0.3257E+02  0.5157E+03
     -1.481  0.3361E+02  0.5184E+03
     -1.401  0.1863E+02  0.5199E+03
     -1.320  0.1449E+02  0.5210E+03
     -1.240  0.1218E+02  0.5220E+03
     -1.160  0.7866E+01  0.5226E+03
     -1.080  0.1145E+02  0.5236E+03
     -1.000  0.1217E+02  0.5245E+03
     -0.919  0.1471E+02  0.5257E+03
     -0.839  0.2233E+02  0.5275E+03
     -0.759  0.1872E+02  0.5290E+03
     -0.679  0.8967E+01  0.5297E+03
     -0.599  0.1408E+02  0.5309E+03
     -0.518  0.1702E+02  0.5322E+03
     -0.438  0.4591E+02  0.5359E+03
     -0.358  0.4344E+02  0.5394E+03
     -0.278  0.1405E+02  0.5405E+03
     -0.198  0.1693E+02  0.5419E+03
     -0.117  0.1739E+02  0.5433E+03
     -0.037  0.1003E+02  0.5441E+03
      0.043  0.1299E+02  0.5451E+03
      0.123  0.6472E+01  0.5456E+03
      0.204  0.1903E+01  0.5458E+03
      0.284  0.5528E+01  0.5462E+03
      0.364  0.1009E+02  0.5470E+03
      0.444  0.4649E+01  0.5474E+03
      0.524  0.1012E+02  0.5482E+03
      0.605  0.2034E+02  0.5499E+03
      0.685  0.2804E+02  0.5521E+03
      0.765  0.3168E+02  0.5546E+03
      0.845  0.1614E+02  0.5559E+03
      0.925  0.1791E+02  0.5574E+03
      1.006  0.2980E+02  0.5598E+03
      1.086  0.1442E+02  0.5609E+03
      1.166  0.9270E+01  0.5617E+03
      1.246  0.1703E+02  0.5630E+03
      1.326  0.1710E+02  0.5644E+03
      1.407  0.1334E+02  0.5655E+03
      1.487  0.7309E+01  0.5661E+03
      1.567  0.8724E+01  0.5668E+03
      1.647  0.9722E+01  0.5675E+03
      1.728  0.2470E+02  0.5695E+03
      1.808  0.2878E+02  0.5718E+03
      1.888  0.1255E+02  0.5728E+03
      1.968  0.2133E+02  0.5745E+03
      2.048  0.2317E+02  0.5764E+03
      2.129  0.1023E+02  0.5772E+03
      2.209  0.5927E+01  0.5777E+03
      2.289  0.5606E+01  0.5781E+03
      2.369  0.1326E+02  0.5792E+03
      2.449  0.1495E+02  0.5804E+03
      2.530  0.8153E+01  0.5811E+03
      2.610  0.1253E+02  0.5821E+03
      2.690  0.1690E+02  0.5834E+03
      2.770  0.1091E+02  0.5843E+03
      2.850  0.1113E+02  0.5852E+03
      2.931  0.9336E+01  0.5859E+03
      3.011  0.3341E+01  0.5862E+03
      3.091  0.9169E+01  0.5869E+03
      3.171  0.1370E+02  0.5880E+03
      3.252  0.1272E+02  0.5891E+03
      3.332  0.1092E+02  0.5899E+03
      3.412  0.8750E+01  0.5906E+03
      3.492  0.7256E+01  0.5912E+03
      3.572  0.1244E+02  0.5922E+03
      3.653  0.2056E+02  0.5939E+03
      3.733  0.2077E+02  0.5955E+03
      3.813  0.1553E+02  0.5968E+03
      3.893  0.1528E+02  0.5980E+03
      3.973  0.8224E+01  0.5987E+03
      4.054  0.9593E+01  0.5994E+03
      4.134  0.4074E+01  0.5998E+03
      4.214  0.1640E+01  0.5999E+03
      4.294  0.1557E+02  0.6011E+03
      4.374  0.1708E+02  0.6025E+03
      4.455  0.1409E+02  0.6036E+03
      4.535  0.2732E+02  0.6058E+03
      4.615  0.3187E+02  0.6084E+03
      4.695  0.2673E+02  0.6105E+03
      4.775  0.1403E+02  0.6117E+03
      4.856  0.9103E+01  0.6124E+03
      4.936  0.1506E+02  0.6136E+03
      5.016  0.2422E+02  0.6155E+03
      5.096  0.4220E+02  0.6189E+03
      5.177  0.4238E+02  0.6223E+03
      5.257  0.2496E+02  0.6243E+03
      5.337  0.2071E+02  0.6260E+03
      5.417  0.2587E+02  0.6281E+03
      5.497  0.2325E+02  0.6299E+03
      5.578  0.2360E+02  0.6318E+03
      5.658  0.2431E+02  0.6338E+03
      5.738  0.1595E+02  0.6351E+03
      5.818  0.2089E+02  0.6367E+03
      5.898  0.2934E+02  0.6391E+03
      5.979  0.3377E+02  0.6418E+03
      6.059  0.2314E+02  0.6436E+03
      6.139  0.1216E+02  0.6446E+03
      6.219  0.8476E+01  0.6453E+03
      6.299  0.1508E+02  0.6465E+03
      6.380  0.1483E+02  0.6477E+03
      6.460  0.4003E+01  0.6480E+03
      6.540 -0.7657E-01  0.6480E+03
      6.620 -0.1879E+00  0.6480E+03
      6.701 -0.1928E-01  0.6480E+03
      6.781 -0.4609E-03  0.6480E+03
      6.861 -0.2835E-05  0.6480E+03
      6.941 -0.4621E-08  0.6480E+03
      7.021 -0.2023E-11  0.6480E+03
      7.102  0.0000E+00  0.6480E+03
      7.182  0.0000E+00  0.6480E+03
      7.262  0.0000E+00  0.6480E+03
      7.342  0.0000E+00  0.6480E+03
      7.422  0.0000E+00  0.6480E+03
      7.503  0.0000E+00  0.6480E+03
