 running   96 mpi-ranks, with    1 threads/rank, on    1 nodes
 distrk:  each k-point on   96 cores,    1 groups
 distr:  one band on   24 cores,    4 groups
 vasp.6.4.1 05Apr23 (build Jun 16 2023 21:11:36) complex                        
  
 POSCAR found type information on POSCAR CuN H 
 POSCAR found :  3 types and      51 ions
 Reading from existing POTCAR
 scaLAPACK will be used
 Reading from existing POTCAR
 LDA part: xc-table for Pade appr. of Perdew
 POSCAR found type information on POSCAR CuN H 
 POSCAR found :  3 types and      51 ions
 POSCAR, INCAR and KPOINTS ok, starting setup
 FFT: planning ... GRIDC
 FFT: planning ... GRID_SOFT
 FFT: planning ... GRID
 WAVECAR not read
 entering main loop
       N       E                     dE             d eps       ncg     rms          rms(c)
DAV:   1     0.510582763455E+04    0.51058E+04   -0.21906E+05  3240   0.198E+03
DAV:   2     0.567478970563E+03   -0.45383E+04   -0.43838E+04  3240   0.449E+02
DAV:   3    -0.149750446196E+03   -0.71723E+03   -0.65908E+03  3288   0.225E+02
DAV:   4    -0.216132215587E+03   -0.66382E+02   -0.61019E+02  4464   0.802E+01
DAV:   5    -0.220555816617E+03   -0.44236E+01   -0.43487E+01  4824   0.165E+01    0.537E+01
RMM:   6    -0.199654254145E+03    0.20902E+02   -0.50020E+02  3255   0.105E+02    0.333E+01
RMM:   7    -0.178537566605E+03    0.21117E+02   -0.11099E+02  3245   0.540E+01    0.776E+00
RMM:   8    -0.177255093506E+03    0.12825E+01   -0.70262E+00  3467   0.831E+00    0.543E+00
RMM:   9    -0.176952554227E+03    0.30254E+00   -0.26330E+00  3276   0.602E+00    0.306E+00
RMM:  10    -0.176838437197E+03    0.11412E+00   -0.93156E-01  3479   0.308E+00    0.239E+00
RMM:  11    -0.176804937455E+03    0.33500E-01   -0.33285E-01  3300   0.181E+00    0.147E+00
RMM:  12    -0.176796433623E+03    0.85038E-02   -0.24234E-01  3334   0.168E+00    0.126E+00
RMM:  13    -0.176772863990E+03    0.23570E-01   -0.87028E-02  4260   0.716E-01    0.702E-01
RMM:  14    -0.176764200488E+03    0.86635E-02   -0.15787E-02  3390   0.291E-01    0.276E-01
RMM:  15    -0.176762469749E+03    0.17307E-02   -0.15018E-02  3420   0.312E-01    0.337E-01
RMM:  16    -0.176759314767E+03    0.31550E-02   -0.48490E-03  3279   0.264E-01    0.128E-01
RMM:  17    -0.176759180288E+03    0.13448E-03   -0.19229E-03  3425   0.140E-01    0.104E-01
RMM:  18    -0.176759273497E+03   -0.93209E-04   -0.88446E-04  3272   0.102E-01    0.601E-02
RMM:  19    -0.176760037382E+03   -0.76389E-03   -0.79682E-04  3326   0.736E-02    0.532E-02
RMM:  20    -0.176760539211E+03   -0.50183E-03   -0.40009E-04  3264   0.684E-02    0.264E-02
RMM:  21    -0.176761112503E+03   -0.57329E-03   -0.18546E-04  3242   0.348E-02    0.262E-02
RMM:  22    -0.176761482185E+03   -0.36968E-03   -0.92735E-05  3042   0.297E-02    0.162E-02
RMM:  23    -0.176761977516E+03   -0.49533E-03   -0.11140E-04  2972   0.232E-02    0.219E-02
RMM:  24    -0.176762186531E+03   -0.20902E-03   -0.24843E-05  2022   0.178E-02    0.122E-02
RMM:  25    -0.176762473462E+03   -0.28693E-03   -0.25577E-05  1994   0.134E-02    0.106E-02
RMM:  26    -0.176762608219E+03   -0.13476E-03   -0.10575E-05  1927   0.124E-02    0.448E-03
RMM:  27    -0.176762663096E+03   -0.54877E-04   -0.29662E-06  1876   0.516E-03    0.364E-03
RMM:  28    -0.176762717515E+03   -0.54419E-04   -0.25987E-06  1880   0.454E-03    0.218E-03
RMM:  29    -0.176762753094E+03   -0.35578E-04   -0.24680E-06  1887   0.313E-03    0.168E-03
RMM:  30    -0.176762758101E+03   -0.50074E-05   -0.55424E-07  1734   0.248E-03
   1 F= -.17676276E+03 E0= -.17673874E+03  d E =-.176763E+03
 curvature:   0.00 expect dE= 0.000E+00 dE for cont linesearch  0.000E+00
 trial: gam= 0.00000 g(F)=  0.198E-01 g(S)=  0.000E+00 ort = 0.000E+00 (trialstep = 0.100E+01)
 search vector abs. value=  0.198E-01
