Bulk Frequency (Finite Difference)      
           1
    10.118502    0.000000    0.000000
    -5.059251    8.762880    0.000000
     0.000000    0.000000   18.588875
   Cu   N    H 
    48     1     2
Direct configuration=     1
   0.99897919  0.00134834  0.61202890
   0.00021600  0.25041067  0.61471980
   0.99558120  0.49704650  0.61207499
   0.99567700  0.74957456  0.61109056
   0.24425896  0.00480009  0.61771541
   0.25051981  0.25259022  0.61197487
   0.25139955  0.49702882  0.61208801
   0.25171957  0.75344558  0.60158889
   0.51056396  0.00480484  0.61768620
   0.50332374  0.25664178  0.61103195
   0.50112329  0.50141587  0.61334837
   0.50386696  0.74957000  0.61109416
   0.75237148  0.00137663  0.61202777
   0.75206495  0.25259844  0.61197297
   0.75026455  0.50139432  0.61334749
   0.75050399  0.75094043  0.61329256
   0.08333535  0.16671059  0.38889148
   0.08329684  0.41659326  0.38880872
   0.08324354  0.66662851  0.38873048
   0.08327422  0.91673155  0.38878459
   0.33333281  0.16668958  0.38886514
   0.33334809  0.41663014  0.38883794
   0.33338527  0.66662850  0.38873044
   0.33338990  0.91677985  0.38871267
   0.58335698  0.16668847  0.38886516
   0.58336764  0.41668268  0.38888436
   0.58338430  0.66665940  0.38882993
   0.58345920  0.91673156  0.38878458
   0.83337555  0.16670953  0.38889160
   0.83328408  0.41663008  0.38883801
   0.83327594  0.66665940  0.38883011
   0.83337161  0.91667097  0.38887627
   0.16661106  0.08337393  0.49995505
   0.16660834  0.33317385  0.49987332
   0.16634798  0.58269386  0.49927835
   0.16605135  0.83396939  0.49904215
   0.41688947  0.08377902  0.49977113
   0.41664008  0.33340476  0.50000806
   0.41691424  0.58326606  0.49976107
   0.41791861  0.83396986  0.49904167
   0.66676350  0.08337370  0.49995493
   0.66676521  0.33340483  0.50000845
   0.66664283  0.58331601  0.49994300
   0.66692375  0.83340967  0.49987179
   0.91673347  0.08345076  0.50002496
   0.91656583  0.33317328  0.49987345
   0.91635132  0.58326635  0.49976117
   0.91648512  0.83340829  0.49987254
   0.35190228  0.95372088  0.68585755
   0.37772324  0.00522712  0.73515682
   0.19835585  0.64689068  0.71887423
