  51  51   0   0
  0.3231811E+02  0.1011850E-08  0.1011850E-08  0.1858888E-08  0.1500000E-16
  1.000000000000000E-004
  CAR 
 Bulk_Frequency                          
      7.50449540    -17.54123045  301     -0.33350011      1.00000000
    -17.541  0.0000E+00  0.0000E+00
    -17.458  0.0000E+00  0.0000E+00
    -17.374  0.0000E+00  0.0000E+00
    -17.291  0.0000E+00  0.0000E+00
    -17.207 -0.6487E-29 -0.5416E-30
    -17.124 -0.1976E-23 -0.1650E-24
    -17.040 -0.1474E-18 -0.1230E-19
    -16.957 -0.2593E-14 -0.2165E-15
    -16.873 -0.1129E-10 -0.9426E-12
    -16.790 -0.1169E-07 -0.9770E-09
    -16.706 -0.2799E-05 -0.2347E-06
    -16.623 -0.1432E-03 -0.1219E-04
    -16.539 -0.1069E-02 -0.1015E-03
    -16.456  0.5387E-02  0.3483E-03
    -16.372  0.2329E-01  0.2293E-02
    -16.289  0.1071E-01  0.3187E-02
    -16.205 -0.9391E-03  0.3109E-02
    -16.122 -0.3121E-03  0.3082E-02
    -16.038 -0.9636E-05  0.3082E-02
    -15.955 -0.6067E-07  0.3082E-02
    -15.872 -0.8711E-10  0.3082E-02
    -15.788 -0.2960E-13  0.3082E-02
    -15.705  0.0000E+00  0.3082E-02
    -15.621  0.0000E+00  0.3082E-02
    -15.538  0.0000E+00  0.3082E-02
    -15.454  0.0000E+00  0.3082E-02
    -15.371  0.0000E+00  0.3082E-02
    -15.287  0.0000E+00  0.3082E-02
    -15.204  0.0000E+00  0.3082E-02
    -15.120  0.0000E+00  0.3082E-02
    -15.037  0.0000E+00  0.3082E-02
    -14.953  0.0000E+00  0.3082E-02
    -14.870  0.0000E+00  0.3082E-02
    -14.786  0.0000E+00  0.3082E-02
    -14.703  0.0000E+00  0.3082E-02
    -14.619  0.0000E+00  0.3082E-02
    -14.536  0.0000E+00  0.3082E-02
    -14.452  0.0000E+00  0.3082E-02
    -14.369  0.0000E+00  0.3082E-02
    -14.285  0.0000E+00  0.3082E-02
    -14.202  0.0000E+00  0.3082E-02
    -14.118  0.0000E+00  0.3082E-02
    -14.035  0.0000E+00  0.3082E-02
    -13.951  0.0000E+00  0.3082E-02
    -13.868  0.0000E+00  0.3082E-02
    -13.784  0.0000E+00  0.3082E-02
    -13.701  0.0000E+00  0.3082E-02
    -13.617  0.0000E+00  0.3082E-02
    -13.534  0.0000E+00  0.3082E-02
    -13.450  0.0000E+00  0.3082E-02
    -13.367  0.0000E+00  0.3082E-02
    -13.283  0.0000E+00  0.3082E-02
    -13.200  0.0000E+00  0.3082E-02
    -13.116  0.0000E+00  0.3082E-02
    -13.033  0.0000E+00  0.3082E-02
    -12.950  0.0000E+00  0.3082E-02
    -12.866  0.0000E+00  0.3082E-02
    -12.783  0.0000E+00  0.3082E-02
    -12.699  0.0000E+00  0.3082E-02
    -12.616  0.0000E+00  0.3082E-02
    -12.532  0.0000E+00  0.3082E-02
    -12.449  0.0000E+00  0.3082E-02
    -12.365  0.0000E+00  0.3082E-02
    -12.282  0.0000E+00  0.3082E-02
    -12.198  0.0000E+00  0.3082E-02
    -12.115  0.0000E+00  0.3082E-02
    -12.031  0.0000E+00  0.3082E-02
    -11.948  0.0000E+00  0.3082E-02
    -11.864  0.0000E+00  0.3082E-02
    -11.781  0.0000E+00  0.3082E-02
    -11.697  0.0000E+00  0.3082E-02
    -11.614  0.0000E+00  0.3082E-02
    -11.530  0.0000E+00  0.3082E-02
    -11.447  0.0000E+00  0.3082E-02
    -11.363  0.0000E+00  0.3082E-02
    -11.280  0.0000E+00  0.3082E-02
    -11.196  0.0000E+00  0.3082E-02
    -11.113  0.0000E+00  0.3082E-02
    -11.029  0.0000E+00  0.3082E-02
    -10.946  0.0000E+00  0.3082E-02
    -10.862  0.0000E+00  0.3082E-02
    -10.779  0.0000E+00  0.3082E-02
    -10.695  0.0000E+00  0.3082E-02
    -10.612  0.0000E+00  0.3082E-02
    -10.528  0.0000E+00  0.3082E-02
    -10.445  0.0000E+00  0.3082E-02
    -10.361  0.0000E+00  0.3082E-02
    -10.278  0.0000E+00  0.3082E-02
    -10.194  0.0000E+00  0.3082E-02
    -10.111  0.0000E+00  0.3082E-02
    -10.028  0.0000E+00  0.3082E-02
     -9.944 -0.2146E-33  0.3082E-02
     -9.861 -0.1499E-27  0.3082E-02
     -9.777 -0.2569E-22  0.3082E-02
     -9.694 -0.1076E-17  0.3082E-02
     -9.610 -0.1056E-13  0.3082E-02
     -9.527 -0.2560E-10  0.3082E-02
     -9.443 -0.1463E-07  0.3082E-02
     -9.360 -0.1892E-05  0.3082E-02
     -9.276 -0.4832E-04  0.3077E-02
     -9.193 -0.6366E-04  0.3072E-02
     -9.109  0.1453E-02  0.3193E-02
     -9.026  0.1801E-02  0.3344E-02
     -8.942  0.2665E-02  0.3566E-02
     -8.859  0.1466E-01  0.4790E-02
     -8.775  0.8867E-02  0.5530E-02
     -8.692 -0.6085E-03  0.5480E-02
     -8.608  0.2035E-02  0.5649E-02
     -8.525  0.4541E-02  0.6029E-02
     -8.441  0.4792E-02  0.6429E-02
     -8.358  0.1621E-01  0.7782E-02
     -8.274  0.1839E-01  0.9318E-02
     -8.191  0.4937E-02  0.9730E-02
     -8.107  0.1191E-02  0.9829E-02
     -8.024  0.7367E-02  0.1044E-01
     -7.940  0.1606E-01  0.1178E-01
     -7.857  0.8627E-02  0.1250E-01
     -7.773  0.1759E-02  0.1265E-01
     -7.690  0.1243E-02  0.1276E-01
     -7.606  0.1098E-01  0.1367E-01
     -7.523  0.1301E-01  0.1476E-01
     -7.439  0.1717E-01  0.1619E-01
     -7.356  0.1098E-01  0.1711E-01
     -7.272  0.9980E-04  0.1712E-01
     -7.189  0.6996E-02  0.1770E-01
     -7.106  0.1517E-01  0.1897E-01
     -7.022  0.1477E-01  0.2020E-01
     -6.939  0.1300E-01  0.2129E-01
     -6.855  0.5280E-02  0.2173E-01
     -6.772  0.1249E-01  0.2277E-01
     -6.688  0.1492E-01  0.2402E-01
     -6.605  0.1300E-01  0.2510E-01
     -6.521  0.1914E-01  0.2670E-01
     -6.438  0.2378E-01  0.2868E-01
     -6.354  0.2366E-01  0.3066E-01
     -6.271  0.1563E-01  0.3197E-01
     -6.187  0.1713E-01  0.3340E-01
     -6.104  0.1581E-01  0.3472E-01
     -6.020  0.1349E-01  0.3584E-01
     -5.937  0.1041E-01  0.3671E-01
     -5.853  0.4757E-02  0.3711E-01
     -5.770  0.7846E-02  0.3776E-01
     -5.686  0.2356E-01  0.3973E-01
     -5.603  0.3376E-01  0.4255E-01
     -5.519  0.4773E-01  0.4653E-01
     -5.436  0.5235E-01  0.5090E-01
     -5.352  0.4210E-01  0.5442E-01
     -5.269  0.3207E-01  0.5710E-01
     -5.185  0.2040E-01  0.5880E-01
     -5.102  0.6124E-01  0.6391E-01
     -5.018  0.8542E-01  0.7104E-01
     -4.935  0.7685E-01  0.7746E-01
     -4.851  0.9562E-01  0.8544E-01
     -4.768  0.9724E-01  0.9356E-01
     -4.684  0.8603E-01  0.1007E+00
     -4.601  0.8666E-01  0.1080E+00
     -4.517  0.1241E+00  0.1183E+00
     -4.434  0.1636E+00  0.1320E+00
     -4.350  0.1640E+00  0.1457E+00
     -4.267  0.1364E+00  0.1571E+00
     -4.184  0.1499E+00  0.1696E+00
     -4.100  0.1213E+00  0.1797E+00
     -4.017  0.1282E+00  0.1904E+00
     -3.933  0.1132E+00  0.1999E+00
     -3.850  0.1248E+00  0.2103E+00
     -3.766  0.2468E+00  0.2309E+00
     -3.683  0.2152E+00  0.2489E+00
     -3.599  0.1352E+00  0.2601E+00
     -3.516  0.1684E+00  0.2742E+00
     -3.432  0.2859E+00  0.2981E+00
     -3.349  0.2476E+00  0.3187E+00
     -3.265  0.2084E+00  0.3361E+00
     -3.182  0.2961E+00  0.3609E+00
     -3.098  0.3511E+00  0.3902E+00
     -3.015  0.3521E+00  0.4196E+00
     -2.931  0.3276E+00  0.4469E+00
     -2.848  0.2538E+00  0.4681E+00
     -2.764  0.1901E+00  0.4840E+00
     -2.681  0.2003E+00  0.5007E+00
     -2.597  0.2526E+00  0.5218E+00
     -2.514  0.3225E+00  0.5487E+00
     -2.430  0.3596E+00  0.5787E+00
     -2.347  0.2989E+00  0.6037E+00
     -2.263  0.2618E+00  0.6255E+00
     -2.180  0.2572E+00  0.6470E+00
     -2.096  0.3137E+00  0.6732E+00
     -2.013  0.4364E+00  0.7096E+00
     -1.929  0.4639E+00  0.7484E+00
     -1.846  0.2555E+00  0.7697E+00
     -1.762  0.1059E+00  0.7785E+00
     -1.679  0.7214E-01  0.7846E+00
     -1.595  0.4801E-01  0.7886E+00
     -1.512  0.4134E-01  0.7920E+00
     -1.428  0.5431E-01  0.7966E+00
     -1.345  0.5589E-01  0.8012E+00
     -1.262  0.3365E-01  0.8040E+00
     -1.178  0.4224E-02  0.8044E+00
     -1.095 -0.1521E-02  0.8043E+00
     -1.011  0.1528E-01  0.8055E+00
     -0.928  0.2885E-01  0.8079E+00
     -0.844  0.2002E-01  0.8096E+00
     -0.761  0.2104E-01  0.8114E+00
     -0.677  0.2912E-01  0.8138E+00
     -0.594  0.1893E-01  0.8154E+00
     -0.510  0.2180E-01  0.8172E+00
     -0.427  0.2339E-01  0.8192E+00
     -0.343  0.5305E-01  0.8236E+00
     -0.260  0.7472E-01  0.8298E+00
     -0.176  0.3091E-01  0.8324E+00
     -0.093  0.2574E-01  0.8346E+00
     -0.009  0.2780E-01  0.8369E+00
      0.074  0.1138E-01  0.8378E+00
      0.158  0.1654E-01  0.8392E+00
      0.241  0.1492E-01  0.8405E+00
      0.325  0.1782E-02  0.8406E+00
      0.408  0.6765E-03  0.8407E+00
      0.492  0.1521E-01  0.8419E+00
      0.575  0.2577E-01  0.8441E+00
      0.659  0.2992E-01  0.8466E+00
      0.742  0.2254E-01  0.8485E+00
      0.826  0.4713E-01  0.8524E+00
      0.909  0.4719E-01  0.8563E+00
      0.993  0.1770E-01  0.8578E+00
      1.076  0.2908E-01  0.8602E+00
      1.160  0.3176E-01  0.8629E+00
      1.243  0.2188E-01  0.8647E+00
      1.327  0.2017E-01  0.8664E+00
      1.410  0.1979E-01  0.8681E+00
      1.494  0.1269E-01  0.8691E+00
      1.577  0.1738E-01  0.8706E+00
      1.660  0.2435E-01  0.8726E+00
      1.744  0.2204E-01  0.8744E+00
      1.827  0.4124E-01  0.8779E+00
      1.911  0.3899E-01  0.8811E+00
      1.994  0.1850E-01  0.8827E+00
      2.078  0.3966E-01  0.8860E+00
      2.161  0.3200E-01  0.8887E+00
      2.245  0.1160E-01  0.8896E+00
      2.328  0.6588E-02  0.8902E+00
      2.412  0.1062E-01  0.8911E+00
      2.495  0.2235E-01  0.8929E+00
      2.579  0.1491E-01  0.8942E+00
      2.662  0.9617E-02  0.8950E+00
      2.746  0.1957E-01  0.8966E+00
      2.829  0.2565E-01  0.8988E+00
      2.913  0.1807E-01  0.9003E+00
      2.996  0.6405E-02  0.9008E+00
      3.080  0.7688E-02  0.9014E+00
      3.163  0.2384E-01  0.9034E+00
      3.247  0.2788E-01  0.9058E+00
      3.330  0.2153E-01  0.9076E+00
      3.414  0.1608E-01  0.9089E+00
      3.497  0.1300E-01  0.9100E+00
      3.581  0.2178E-01  0.9118E+00
      3.664  0.2091E-01  0.9135E+00
      3.748  0.1073E-01  0.9144E+00
      3.831  0.2613E-01  0.9166E+00
      3.915  0.2718E-01  0.9189E+00
      3.998  0.2804E-01  0.9212E+00
      4.082  0.1863E-01  0.9228E+00
      4.165  0.1304E-01  0.9239E+00
      4.249  0.1272E-01  0.9249E+00
      4.332  0.2346E-01  0.9269E+00
      4.416  0.3268E-01  0.9296E+00
      4.499  0.2380E-01  0.9316E+00
      4.582  0.2596E-01  0.9338E+00
      4.666  0.3422E-01  0.9366E+00
      4.749  0.3396E-01  0.9395E+00
      4.833  0.2609E-01  0.9417E+00
      4.916  0.2791E-01  0.9440E+00
      5.000  0.4468E-01  0.9477E+00
      5.083  0.5329E-01  0.9522E+00
      5.167  0.4916E-01  0.9563E+00
      5.250  0.5531E-01  0.9609E+00
      5.334  0.3990E-01  0.9642E+00
      5.417  0.2774E-01  0.9665E+00
      5.501  0.3733E-01  0.9696E+00
      5.584  0.3523E-01  0.9726E+00
      5.668  0.3935E-01  0.9759E+00
      5.751  0.3849E-01  0.9791E+00
      5.835  0.3342E-01  0.9819E+00
      5.918  0.3772E-01  0.9850E+00
      6.002  0.4696E-01  0.9889E+00
      6.085  0.4386E-01  0.9926E+00
      6.169  0.2640E-01  0.9948E+00
      6.252  0.2068E-01  0.9965E+00
      6.336  0.1386E-01  0.9977E+00
      6.419  0.8768E-02  0.9984E+00
      6.503  0.8081E-03  0.9985E+00
      6.586 -0.3774E-03  0.9985E+00
      6.670 -0.3658E-04  0.9985E+00
      6.753 -0.6467E-06  0.9985E+00
      6.837 -0.2577E-08  0.9985E+00
      6.920 -0.2423E-11  0.9985E+00
      7.004 -0.5473E-15  0.9985E+00
      7.087  0.0000E+00  0.9985E+00
      7.171  0.0000E+00  0.9985E+00
      7.254  0.0000E+00  0.9985E+00
      7.338  0.0000E+00  0.9985E+00
      7.421  0.0000E+00  0.9985E+00
      7.504  0.0000E+00  0.9985E+00
