 running   96 mpi-ranks, with    1 threads/rank, on    1 nodes
 distrk:  each k-point on   96 cores,    1 groups
 distr:  one band on   24 cores,    4 groups
 vasp.6.4.1 05Apr23 (build Jun 16 2023 21:11:36) complex                        
  
 POSCAR found type information on POSCAR CuN H 
 POSCAR found :  3 types and      51 ions
 Reading from existing POTCAR
 scaLAPACK will be used
 Reading from existing POTCAR
 LDA part: xc-table for Pade appr. of Perdew
 POSCAR found type information on POSCAR CuN H 
 POSCAR found :  3 types and      51 ions
 found WAVECAR, reading the header
 POSCAR, INCAR and KPOINTS ok, starting setup
 FFT: planning ... GRIDC
 FFT: planning ... GRID_SOFT
 FFT: planning ... GRID
 reading WAVECAR
 the WAVECAR file was read successfully
 initial charge from wavefunction
 entering main loop
       N       E                     dE             d eps       ncg     rms          rms(c)
DAV:   1    -0.880971290527E+03   -0.88097E+03   -0.12956E+04  4384   0.102E+03    0.531E+02
RMM:   2    -0.450057510211E+03    0.43091E+03   -0.34996E+03  5802   0.208E+02    0.308E+02
RMM:   3    -0.581194743951E+03   -0.13114E+03   -0.26931E+03  5739   0.132E+02    0.227E+02
RMM:   4    -0.344323420159E+03    0.23687E+03   -0.95019E+02  4320   0.858E+01    0.193E+02
RMM:   5    -0.272159423549E+03    0.72164E+02   -0.25186E+02  3314   0.594E+01    0.177E+02
RMM:   6    -0.260699692074E+03    0.11460E+02   -0.18311E+02  3346   0.457E+01    0.181E+02
RMM:   7    -0.355765543386E+03   -0.95066E+02   -0.33006E+02  3770   0.512E+01    0.184E+02
RMM:   8    -0.366999735997E+03   -0.11234E+02   -0.23699E+02  3756   0.438E+01    0.152E+02
RMM:   9    -0.230159110005E+03    0.13684E+03   -0.14670E+02  3441   0.442E+01    0.108E+02
RMM:  10    -0.200725116460E+03    0.29434E+02   -0.12448E+02  3508   0.361E+01    0.626E+01
RMM:  11    -0.196583466363E+03    0.41417E+01   -0.39922E+01  3257   0.236E+01    0.507E+01
RMM:  12    -0.198810187584E+03   -0.22267E+01   -0.59069E+01  3395   0.310E+01    0.735E+01
RMM:  13    -0.193420231179E+03    0.53900E+01   -0.20864E+01  3331   0.156E+01    0.547E+01
RMM:  14    -0.183116482486E+03    0.10304E+02   -0.19794E+01  3269   0.184E+01    0.249E+01
RMM:  15    -0.180586361059E+03    0.25301E+01   -0.90576E+00  3279   0.101E+01    0.125E+01
RMM:  16    -0.179131525585E+03    0.14548E+01   -0.42472E+00  3260   0.900E+00    0.775E+00
RMM:  17    -0.178651120701E+03    0.48040E+00   -0.20327E+00  3346   0.378E+00    0.614E+00
RMM:  18    -0.178330375655E+03    0.32075E+00   -0.11657E+00  3274   0.366E+00    0.400E+00
RMM:  19    -0.178187274728E+03    0.14310E+00   -0.84147E-01  3331   0.265E+00    0.225E+00
RMM:  20    -0.178149385375E+03    0.37889E-01   -0.25406E-01  3299   0.178E+00    0.190E+00
RMM:  21    -0.178133250943E+03    0.16134E-01   -0.15062E-01  3678   0.975E-01    0.158E+00
RMM:  22    -0.178108370815E+03    0.24880E-01   -0.67286E-02  3421   0.744E-01    0.102E+00
RMM:  23    -0.178098923762E+03    0.94471E-02   -0.41010E-02  3718   0.480E-01    0.592E-01
RMM:  24    -0.178097026121E+03    0.18976E-02   -0.16321E-02  3671   0.298E-01    0.375E-01
RMM:  25    -0.178096467335E+03    0.55879E-03   -0.41037E-03  3529   0.173E-01    0.280E-01
RMM:  26    -0.178096577510E+03   -0.11017E-03   -0.27479E-03  3774   0.112E-01    0.202E-01
RMM:  27    -0.178096737762E+03   -0.16025E-03   -0.90924E-04  3331   0.977E-02    0.123E-01
RMM:  28    -0.178097022170E+03   -0.28441E-03   -0.71275E-04  3948   0.502E-02    0.732E-02
RMM:  29    -0.178097434321E+03   -0.41215E-03   -0.25593E-04  3398   0.456E-02    0.578E-02
RMM:  30    -0.178097896380E+03   -0.46206E-03   -0.22106E-04  3654   0.312E-02    0.547E-02
RMM:  31    -0.178098138935E+03   -0.24256E-03   -0.95520E-05  3370   0.271E-02    0.416E-02
RMM:  32    -0.178098287221E+03   -0.14829E-03   -0.49991E-05  3863   0.131E-02    0.330E-02
RMM:  33    -0.178098368779E+03   -0.81558E-04   -0.18662E-05  3274   0.982E-03    0.269E-02
RMM:  34    -0.178098423611E+03   -0.54831E-04   -0.16106E-05  3404   0.108E-02    0.201E-02
RMM:  35    -0.178098443609E+03   -0.19998E-04   -0.88834E-06  3139   0.592E-03    0.162E-02
RMM:  36    -0.178098464011E+03   -0.20402E-04   -0.78312E-06  2994   0.680E-03    0.116E-02
RMM:  37    -0.178098473973E+03   -0.99620E-05   -0.33229E-06  2224   0.510E-03    0.730E-03
RMM:  38    -0.178098476125E+03   -0.21511E-05   -0.11794E-06  1911   0.312E-03    0.578E-03
RMM:  39    -0.178098479628E+03   -0.35036E-05   -0.11156E-06  1905   0.317E-03    0.461E-03
RMM:  40    -0.178098482039E+03   -0.24112E-05   -0.57655E-07  1881   0.222E-03    0.419E-03
RMM:  41    -0.178098482678E+03   -0.63832E-06   -0.20748E-07  1867   0.159E-03
   1 F= -.17809848E+03 E0= -.17807950E+03  d E =-.569586E-01
 Finite differences POTIM= 0.01500 DOF= 153
 bond charge predicted
       N       E                     dE             d eps       ncg     rms          rms(c)
DAV:   1    -0.178096045018E+03    0.24370E-02   -0.12764E+00  3400   0.204E+00    0.668E-02
RMM:   2    -0.178097420389E+03   -0.13754E-02   -0.14497E-02  3260   0.524E-01    0.659E-02
RMM:   3    -0.178098146773E+03   -0.72638E-03   -0.79794E-03  4543   0.232E-01    0.561E-02
RMM:   4    -0.178098129634E+03    0.17139E-04   -0.24587E-04  3791   0.359E-02    0.477E-02
RMM:   5    -0.178098098502E+03    0.31132E-04   -0.53275E-05  3259   0.304E-02    0.369E-02
RMM:   6    -0.178098075796E+03    0.22706E-04   -0.11850E-04  3502   0.347E-02    0.203E-02
RMM:   7    -0.178098073885E+03    0.19111E-05   -0.34367E-05  3256   0.230E-02    0.140E-02
RMM:   8    -0.178098072403E+03    0.14823E-05   -0.12845E-05  3489   0.108E-02    0.894E-03
RMM:   9    -0.178098071663E+03    0.74029E-06   -0.19991E-06  2061   0.387E-03
   2 F= -.17809807E+03 E0= -.17807913E+03  d E =-.568327E-01
 Finite differences progress:
  Degree of freedom:   1/153
  Displacement:        1/  2
  Total:               1/306
 bond charge predicted
       N       E                     dE             d eps       ncg     rms          rms(c)
DAV:   1    -0.178087697806E+03    0.10375E-01   -0.51270E+00  3344   0.412E+00    0.151E-01
RMM:   2    -0.178094128980E+03   -0.64312E-02   -0.67660E-02  3242   0.110E+00    0.190E-01
RMM:   3    -0.178097426908E+03   -0.32979E-02   -0.38693E-02  4523   0.524E-01    0.112E-01
RMM:   4    -0.178097401763E+03    0.25145E-04   -0.13725E-03  3623   0.834E-02    0.100E-01
RMM:   5    -0.178097286880E+03    0.11488E-03   -0.24554E-04  3267   0.673E-02    0.810E-02
RMM:   6    -0.178097145318E+03    0.14156E-03   -0.43348E-04  3449   0.693E-02    0.377E-02
RMM:   7    -0.178097145516E+03   -0.19843E-06   -0.16863E-04  3298   0.503E-02    0.278E-02
RMM:   8    -0.178097141811E+03    0.37051E-05   -0.64956E-05  3915   0.243E-02    0.178E-02
RMM:   9    -0.178097139374E+03    0.24373E-05   -0.97270E-06  2800   0.738E-03    0.135E-02
RMM:  10    -0.178097136399E+03    0.29745E-05   -0.56597E-06  2534   0.539E-03    0.631E-03
RMM:  11    -0.178097136490E+03   -0.90789E-07   -0.33094E-06  2142   0.551E-03
   3 F= -.17809714E+03 E0= -.17807812E+03  d E =-.570642E-01
 Finite differences progress:
  Degree of freedom:   1/153
  Displacement:        2/  2
  Total:               2/306
 bond charge predicted
       N       E                     dE             d eps       ncg     rms          rms(c)
DAV:   1    -0.178093244402E+03    0.38920E-02   -0.25569E+00  3380   0.290E+00    0.983E-02
RMM:   2    -0.178096064866E+03   -0.28205E-02   -0.29741E-02  3252   0.743E-01    0.108E-01
RMM:   3    -0.178097533052E+03   -0.14682E-02   -0.16737E-02  4550   0.336E-01    0.792E-02
RMM:   4    -0.178097504053E+03    0.28999E-04   -0.50769E-04  3612   0.514E-02    0.692E-02
RMM:   5    -0.178097442374E+03    0.61680E-04   -0.12093E-04  3266   0.476E-02    0.551E-02
RMM:   6    -0.178097384396E+03    0.57977E-04   -0.22620E-04  3482   0.495E-02    0.280E-02
RMM:   7    -0.178097381686E+03    0.27101E-05   -0.74991E-05  3272   0.343E-02    0.192E-02
RMM:   8    -0.178097379650E+03    0.20368E-05   -0.29090E-05  3888   0.162E-02    0.120E-02
RMM:   9    -0.178097378445E+03    0.12047E-05   -0.40442E-06  2459   0.488E-03    0.907E-03
RMM:  10    -0.178097377218E+03    0.12271E-05   -0.43610E-06  2309   0.488E-03    0.419E-03
RMM:  11    -0.178097377360E+03   -0.14259E-06   -0.99234E-07  1865   0.414E-03
   4 F= -.17809738E+03 E0= -.17807839E+03  d E =-.569582E-01
 Finite differences progress:
  Degree of freedom:   2/153
  Displacement:        1/  2
  Total:               3/306
 bond charge predicted
       N       E                     dE             d eps       ncg     rms          rms(c)
DAV:   1    -0.178089450877E+03    0.79263E-02   -0.51344E+00  3336   0.413E+00    0.146E-01
RMM:   2    -0.178095306364E+03   -0.58555E-02   -0.61854E-02  3266   0.104E+00    0.173E-01
RMM:   3    -0.178098423921E+03   -0.31176E-02   -0.36515E-02  4518   0.503E-01    0.113E-01
RMM:   4    -0.178098389577E+03    0.34344E-04   -0.12875E-03  3605   0.802E-02    0.101E-01
RMM:   5    -0.178098266192E+03    0.12339E-03   -0.24085E-04  3262   0.670E-02    0.798E-02
RMM:   6    -0.178098137637E+03    0.12856E-03   -0.52026E-04  3671   0.708E-02    0.405E-02
RMM:   7    -0.178098130443E+03    0.71941E-05   -0.13745E-04  3271   0.475E-02    0.280E-02
RMM:   8    -0.178098124269E+03    0.61741E-05   -0.46933E-05  3691   0.222E-02    0.166E-02
RMM:   9    -0.178098121984E+03    0.22846E-05   -0.10812E-05  3009   0.814E-03    0.117E-02
RMM:  10    -0.178098120558E+03    0.14263E-05   -0.14066E-05  3178   0.800E-03    0.495E-03
RMM:  11    -0.178098120537E+03    0.20205E-07   -0.10373E-06  1892   0.418E-03
   5 F= -.17809812E+03 E0= -.17807914E+03  d E =-.569491E-01
 Finite differences progress:
  Degree of freedom:   2/153
  Displacement:        2/  2
  Total:               4/306
 bond charge predicted
       N       E                     dE             d eps       ncg     rms          rms(c)
DAV:   1    -0.178094266553E+03    0.38540E-02   -0.25669E+00  3312   0.290E+00    0.943E-02
RMM:   2    -0.178096905372E+03   -0.26388E-02   -0.27796E-02  3263   0.733E-01    0.791E-02
RMM:   3    -0.178098269769E+03   -0.13644E-02   -0.14837E-02  4565   0.316E-01    0.864E-02
RMM:   4    -0.178098215563E+03    0.54205E-04   -0.51367E-04  4371   0.520E-02    0.688E-02
RMM:   5    -0.178098169745E+03    0.45819E-04   -0.42113E-05  3285   0.233E-02    0.557E-02
RMM:   6    -0.178098116241E+03    0.53503E-04   -0.32072E-04  4362   0.493E-02    0.336E-02
RMM:   7    -0.178098107388E+03    0.88533E-05   -0.48228E-05  3248   0.291E-02    0.223E-02
RMM:   8    -0.178098101167E+03    0.62213E-05   -0.12052E-05  3302   0.129E-02    0.130E-02
RMM:   9    -0.178098099007E+03    0.21602E-05   -0.83493E-06  3047   0.647E-03    0.677E-03
RMM:  10    -0.178098099022E+03   -0.15265E-07   -0.65351E-06  2881   0.654E-03
   6 F= -.17809810E+03 E0= -.17807920E+03  d E =-.566829E-01
 Finite differences progress:
  Degree of freedom:   3/153
  Displacement:        1/  2
  Total:               5/306
 bond charge predicted
       N       E                     dE             d eps       ncg     rms          rms(c)
DAV:   1    -0.178090606809E+03    0.74922E-02   -0.51805E+00  3336   0.414E+00    0.202E-01
RMM:   2    -0.178096363453E+03   -0.57566E-02   -0.62916E-02  3254   0.108E+00    0.266E-01
RMM:   3    -0.178098115749E+03   -0.17523E-02   -0.30598E-02  4262   0.517E-01    0.118E-01
RMM:   4    -0.178098249073E+03   -0.13332E-03   -0.31674E-03  3940   0.120E-01    0.105E-01
RMM:   5    -0.178098145026E+03    0.10405E-03   -0.33112E-04  3269   0.750E-02    0.931E-02
RMM:   6    -0.178097992323E+03    0.15270E-03   -0.48686E-04  3423   0.797E-02    0.440E-02
RMM:   7    -0.178097987804E+03    0.45184E-05   -0.18580E-04  3341   0.512E-02    0.270E-02
RMM:   8    -0.178097988095E+03   -0.29054E-06   -0.83935E-05  3967   0.261E-02    0.187E-02
RMM:   9    -0.178097985647E+03    0.24479E-05   -0.98799E-06  2716   0.743E-03    0.144E-02
RMM:  10    -0.178097984094E+03    0.15530E-05   -0.14409E-06  1961   0.333E-03    0.118E-02
RMM:  11    -0.178097982519E+03    0.15751E-05   -0.95680E-06  3061   0.833E-03    0.490E-03
RMM:  12    -0.178097982521E+03   -0.19791E-08   -0.65716E-07  1857   0.304E-03
   7 F= -.17809798E+03 E0= -.17807891E+03  d E =-.572135E-01
 Finite differences progress:
  Degree of freedom:   3/153
  Displacement:        2/  2
  Total:               6/306
 bond charge predicted
       N       E                     dE             d eps       ncg     rms          rms(c)
DAV:   1    -0.178093611563E+03    0.43710E-02   -0.25595E+00  3384   0.293E+00    0.105E-01
RMM:   2    -0.178096394558E+03   -0.27830E-02   -0.29496E-02  3250   0.751E-01    0.114E-01
RMM:   3    -0.178097817222E+03   -0.14227E-02   -0.16538E-02  4550   0.344E-01    0.844E-02
RMM:   4    -0.178097775042E+03    0.42179E-04   -0.52642E-04  3759   0.538E-02    0.722E-02
RMM:   5    -0.178097717459E+03    0.57583E-04   -0.12048E-04  3270   0.465E-02    0.589E-02
RMM:   6    -0.178097650357E+03    0.67102E-04   -0.25250E-04  3722   0.490E-02    0.257E-02
RMM:   7    -0.178097647605E+03    0.27526E-05   -0.70486E-05  3285   0.335E-02    0.171E-02
RMM:   8    -0.178097645472E+03    0.21325E-05   -0.24905E-05  3736   0.157E-02    0.983E-03
RMM:   9    -0.178097644704E+03    0.76769E-06   -0.42195E-06  2408   0.494E-03
   8 F= -.17809764E+03 E0= -.17807867E+03  d E =-.569353E-01
 Finite differences progress:
  Degree of freedom:   4/153
  Displacement:        1/  2
  Total:               7/306
 bond charge predicted
       N       E                     dE             d eps       ncg     rms          rms(c)
DAV:   1    -0.178089156118E+03    0.84894E-02   -0.51348E+00  3284   0.406E+00    0.146E-01
RMM:   2    -0.178094979459E+03   -0.58233E-02   -0.61502E-02  3254   0.103E+00    0.174E-01
RMM:   3    -0.178098042523E+03   -0.30631E-02   -0.36090E-02  4486   0.494E-01    0.112E-01
RMM:   4    -0.178098020926E+03    0.21598E-04   -0.14020E-03  3684   0.824E-02    0.992E-02
RMM:   5    -0.178097893830E+03    0.12710E-03   -0.23962E-04  3262   0.660E-02    0.778E-02
RMM:   6    -0.178097776642E+03    0.11719E-03   -0.53168E-04  3735   0.707E-02    0.404E-02
RMM:   7    -0.178097767087E+03    0.95553E-05   -0.11729E-04  3285   0.440E-02    0.276E-02
RMM:   8    -0.178097759765E+03    0.73222E-05   -0.38844E-05  3631   0.202E-02    0.162E-02
RMM:   9    -0.178097757325E+03    0.24397E-05   -0.10062E-05  2929   0.808E-03    0.109E-02
RMM:  10    -0.178097756403E+03    0.92241E-06   -0.14298E-05  3165   0.809E-03    0.516E-03
RMM:  11    -0.178097756218E+03    0.18439E-06   -0.10526E-06  1884   0.421E-03
   9 F= -.17809776E+03 E0= -.17807878E+03  d E =-.569417E-01
 Finite differences progress:
  Degree of freedom:   4/153
  Displacement:        2/  2
  Total:               8/306
 bond charge predicted
       N       E                     dE             d eps       ncg     rms          rms(c)
DAV:   1    -0.178094091895E+03    0.36645E-02   -0.25569E+00  3296   0.286E+00    0.986E-02
RMM:   2    -0.178096880213E+03   -0.27883E-02   -0.29475E-02  3261   0.733E-01    0.109E-01
RMM:   3    -0.178098318902E+03   -0.14387E-02   -0.16479E-02  4536   0.331E-01    0.790E-02
RMM:   4    -0.178098290711E+03    0.28191E-04   -0.52487E-04  3606   0.514E-02    0.691E-02
RMM:   5    -0.178098225002E+03    0.65709E-04   -0.12184E-04  3255   0.476E-02    0.537E-02
RMM:   6    -0.178098173555E+03    0.51447E-04   -0.26058E-04  3729   0.494E-02    0.287E-02
RMM:   7    -0.178098167169E+03    0.63866E-05   -0.55378E-05  3271   0.304E-02    0.187E-02
RMM:   8    -0.178098163616E+03    0.35523E-05   -0.18133E-05  3572   0.138E-02    0.105E-02
RMM:   9    -0.178098162701E+03    0.91590E-06   -0.52405E-06  2657   0.569E-03
  10 F= -.17809816E+03 E0= -.17807919E+03  d E =-.569217E-01
 Finite differences progress:
  Degree of freedom:   5/153
  Displacement:        1/  2
  Total:               9/306
 bond charge predicted
       N       E                     dE             d eps       ncg     rms          rms(c)
DAV:   1    -0.178088581448E+03    0.95822E-02   -0.51327E+00  3300   0.405E+00    0.148E-01
RMM:   2    -0.178094424364E+03   -0.58429E-02   -0.61754E-02  3262   0.102E+00    0.177E-01
RMM:   3    -0.178097505059E+03   -0.30807E-02   -0.36454E-02  4474   0.495E-01    0.112E-01
RMM:   4    -0.178097479080E+03    0.25979E-04   -0.13822E-03  3706   0.826E-02    0.993E-02
RMM:   5    -0.178097356244E+03    0.12284E-03   -0.24073E-04  3260   0.659E-02    0.791E-02
RMM:   6    -0.178097235852E+03    0.12039E-03   -0.53637E-04  3734   0.707E-02    0.406E-02
RMM:   7    -0.178097225364E+03    0.10488E-04   -0.11570E-04  3294   0.436E-02    0.278E-02
RMM:   8    -0.178097217729E+03    0.76351E-05   -0.39140E-05  3621   0.202E-02    0.162E-02
RMM:   9    -0.178097215171E+03    0.25581E-05   -0.10163E-05  2946   0.843E-03    0.107E-02
RMM:  10    -0.178097214321E+03    0.85030E-06   -0.14474E-05  3117   0.803E-03    0.514E-03
RMM:  11    -0.178097214109E+03    0.21225E-06   -0.10698E-06  1885   0.427E-03
  11 F= -.17809721E+03 E0= -.17807823E+03  d E =-.569670E-01
 Finite differences progress:
  Degree of freedom:   5/153
  Displacement:        2/  2
  Total:              10/306
 bond charge predicted
       N       E                     dE             d eps       ncg     rms          rms(c)
DAV:   1    -0.178094104394E+03    0.31099E-02   -0.25669E+00  3280   0.285E+00    0.943E-02
RMM:   2    -0.178096729722E+03   -0.26253E-02   -0.27735E-02  3262   0.718E-01    0.815E-02
RMM:   3    -0.178098090199E+03   -0.13605E-02   -0.14834E-02  4534   0.310E-01    0.863E-02
RMM:   4    -0.178098033571E+03    0.56628E-04   -0.50879E-04  4298   0.513E-02    0.689E-02
RMM:   5    -0.178097983247E+03    0.50324E-04   -0.49105E-05  3271   0.264E-02    0.551E-02
RMM:   6    -0.178097930727E+03    0.52520E-04   -0.30798E-04  4232   0.485E-02    0.334E-02
RMM:   7    -0.178097921860E+03    0.88671E-05   -0.51060E-05  3252   0.297E-02    0.218E-02
RMM:   8    -0.178097915897E+03    0.59638E-05   -0.12438E-05  3286   0.135E-02    0.124E-02
RMM:   9    -0.178097914207E+03    0.16899E-05   -0.63073E-06  2931   0.595E-03    0.777E-03
RMM:  10    -0.178097913936E+03    0.27068E-06   -0.71898E-06  2834   0.649E-03
  12 F= -.17809791E+03 E0= -.17807910E+03  d E =-.564345E-01
 Finite differences progress:
  Degree of freedom:   6/153
  Displacement:        1/  2
  Total:              11/306
 bond charge predicted
       N       E                     dE             d eps       ncg     rms          rms(c)
DAV:   1    -0.178090894213E+03    0.70200E-02   -0.51776E+00  3268   0.405E+00    0.201E-01
RMM:   2    -0.178096687937E+03   -0.57937E-02   -0.63207E-02  3248   0.106E+00    0.271E-01
RMM:   3    -0.178098396296E+03   -0.17084E-02   -0.30574E-02  4200   0.505E-01    0.117E-01
RMM:   4    -0.178098533120E+03   -0.13682E-03   -0.31506E-03  3984   0.122E-01    0.105E-01
RMM:   5    -0.178098415431E+03    0.11769E-03   -0.34703E-04  3278   0.746E-02    0.900E-02
RMM:   6    -0.178098272890E+03    0.14254E-03   -0.52753E-04  3464   0.810E-02    0.443E-02
RMM:   7    -0.178098264703E+03    0.81871E-05   -0.16821E-04  3334   0.499E-02    0.257E-02
RMM:   8    -0.178098265161E+03   -0.45732E-06   -0.74810E-05  4010   0.232E-02    0.180E-02
RMM:   9    -0.178098262933E+03    0.22279E-05   -0.58655E-06  2435   0.581E-03    0.144E-02
RMM:  10    -0.178098259664E+03    0.32685E-05   -0.44311E-06  2345   0.540E-03    0.732E-03
RMM:  11    -0.178098259816E+03   -0.15137E-06   -0.63121E-06  2673   0.631E-03
  13 F= -.17809826E+03 E0= -.17807911E+03  d E =-.574583E-01
 Finite differences progress:
  Degree of freedom:   6/153
  Displacement:        2/  2
  Total:              12/306
 bond charge predicted
       N       E                     dE             d eps       ncg     rms          rms(c)
DAV:   1    -0.178093267302E+03    0.49924E-02   -0.25592E+00  3356   0.293E+00    0.103E-01
RMM:   2    -0.178096037979E+03   -0.27707E-02   -0.29324E-02  3262   0.747E-01    0.115E-01
RMM:   3    -0.178097443173E+03   -0.14052E-02   -0.16380E-02  4552   0.342E-01    0.830E-02
RMM:   4    -0.178097402085E+03    0.41088E-04   -0.52978E-04  3736   0.537E-02    0.715E-02
RMM:   5    -0.178097346266E+03    0.55819E-04   -0.12249E-04  3267   0.469E-02    0.593E-02
RMM:   6    -0.178097273331E+03    0.72935E-04   -0.24437E-04  3680   0.492E-02    0.267E-02
RMM:   7    -0.178097270205E+03    0.31260E-05   -0.74594E-05  3281   0.345E-02    0.178E-02
RMM:   8    -0.178097268215E+03    0.19898E-05   -0.26982E-05  3764   0.162E-02    0.107E-02
RMM:   9    -0.178097267237E+03    0.97748E-06   -0.43362E-06  2379   0.541E-03
  14 F= -.17809727E+03 E0= -.17807818E+03  d E =-.572468E-01
 Finite differences progress:
  Degree of freedom:   7/153
  Displacement:        1/  2
  Total:              13/306
 bond charge predicted
       N       E                     dE             d eps       ncg     rms          rms(c)
DAV:   1    -0.178089633150E+03    0.76351E-02   -0.51357E+00  3292   0.412E+00    0.148E-01
RMM:   2    -0.178095506429E+03   -0.58733E-02   -0.61993E-02  3264   0.104E+00    0.185E-01
RMM:   3    -0.178098517171E+03   -0.30107E-02   -0.36240E-02  4513   0.505E-01    0.109E-01
RMM:   4    -0.178098494369E+03    0.22802E-04   -0.13130E-03  3678   0.811E-02    0.979E-02
RMM:   5    -0.178098388241E+03    0.10613E-03   -0.22002E-04  3262   0.633E-02    0.792E-02
RMM:   6    -0.178098254258E+03    0.13398E-03   -0.49065E-04  3750   0.675E-02    0.378E-02
RMM:   7    -0.178098248382E+03    0.58764E-05   -0.12276E-04  3273   0.450E-02    0.268E-02
RMM:   8    -0.178098242413E+03    0.59683E-05   -0.41229E-05  3672   0.209E-02    0.160E-02
RMM:   9    -0.178098240144E+03    0.22691E-05   -0.89521E-06  2935   0.757E-03    0.112E-02
RMM:  10    -0.178098238977E+03    0.11672E-05   -0.13008E-05  3097   0.780E-03    0.487E-03
RMM:  11    -0.178098238908E+03    0.68801E-07   -0.95490E-07  1884   0.408E-03
  15 F= -.17809824E+03 E0= -.17807936E+03  d E =-.566357E-01
 Finite differences progress:
  Degree of freedom:   7/153
  Displacement:        2/  2
  Total:              14/306
 bond charge predicted
       N       E                     dE             d eps       ncg     rms          rms(c)
DAV:   1    -0.178093536164E+03    0.47028E-02   -0.25586E+00  3272   0.290E+00    0.951E-02
RMM:   2    -0.178096335742E+03   -0.27996E-02   -0.29350E-02  3260   0.737E-01    0.106E-01
RMM:   3    -0.178097776091E+03   -0.14403E-02   -0.16427E-02  4549   0.334E-01    0.775E-02
RMM:   4    -0.178097750763E+03    0.25328E-04   -0.50338E-04  3658   0.515E-02    0.684E-02
RMM:   5    -0.178097693287E+03    0.57476E-04   -0.11843E-04  3256   0.467E-02    0.552E-02
RMM:   6    -0.178097637057E+03    0.56230E-04   -0.26186E-04  3796   0.489E-02    0.278E-02
RMM:   7    -0.178097632675E+03    0.43817E-05   -0.52925E-05  3284   0.290E-02    0.204E-02
RMM:   8    -0.178097628532E+03    0.41432E-05   -0.18538E-05  3615   0.139E-02    0.124E-02
RMM:   9    -0.178097626986E+03    0.15454E-05   -0.48772E-06  2718   0.574E-03    0.828E-03
RMM:  10    -0.178097626587E+03    0.39970E-06   -0.82134E-06  2705   0.628E-03
  16 F= -.17809763E+03 E0= -.17807866E+03  d E =-.568856E-01
 Finite differences progress:
  Degree of freedom:   8/153
  Displacement:        1/  2
  Total:              15/306
 bond charge predicted
       N       E                     dE             d eps       ncg     rms          rms(c)
DAV:   1    -0.178089069799E+03    0.85572E-02   -0.51349E+00  3292   0.412E+00    0.149E-01
RMM:   2    -0.178094966274E+03   -0.58965E-02   -0.62329E-02  3260   0.105E+00    0.189E-01
RMM:   3    -0.178097958719E+03   -0.29924E-02   -0.36329E-02  4504   0.508E-01    0.110E-01
RMM:   4    -0.178097937180E+03    0.21539E-04   -0.13435E-03  3663   0.823E-02    0.986E-02
RMM:   5    -0.178097824527E+03    0.11265E-03   -0.22682E-04  3260   0.644E-02    0.786E-02
RMM:   6    -0.178097695366E+03    0.12916E-03   -0.49582E-04  3753   0.689E-02    0.379E-02
RMM:   7    -0.178097688555E+03    0.68112E-05   -0.12120E-04  3275   0.445E-02    0.262E-02
RMM:   8    -0.178097683024E+03    0.55314E-05   -0.43177E-05  3743   0.208E-02    0.159E-02
RMM:   9    -0.178097680448E+03    0.25758E-05   -0.84002E-06  2845   0.742E-03    0.108E-02
RMM:  10    -0.178097679210E+03    0.12379E-05   -0.11321E-05  2996   0.743E-03    0.451E-03
RMM:  11    -0.178097679289E+03   -0.79344E-07   -0.10838E-06  1899   0.404E-03
  17 F= -.17809768E+03 E0= -.17807867E+03  d E =-.570169E-01
 Finite differences progress:
  Degree of freedom:   8/153
  Displacement:        2/  2
  Total:              16/306
 bond charge predicted
       N       E                     dE             d eps       ncg     rms          rms(c)
DAV:   1    -0.178094453496E+03    0.32257E-02   -0.25675E+00  3264   0.291E+00    0.926E-02
RMM:   2    -0.178097088652E+03   -0.26352E-02   -0.27655E-02  3258   0.728E-01    0.801E-02
RMM:   3    -0.178098452760E+03   -0.13641E-02   -0.14847E-02  4564   0.317E-01    0.844E-02
RMM:   4    -0.178098407887E+03    0.44873E-04   -0.53002E-04  4390   0.530E-02    0.688E-02
RMM:   5    -0.178098369019E+03    0.38868E-04   -0.37883E-05  3292   0.227E-02    0.582E-02
RMM:   6    -0.178098309937E+03    0.59082E-04   -0.29230E-04  4410   0.466E-02    0.364E-02
RMM:   7    -0.178098301634E+03    0.83033E-05   -0.63926E-05  3262   0.324E-02    0.267E-02
RMM:   8    -0.178098293401E+03    0.82331E-05   -0.14714E-05  3272   0.157E-02    0.156E-02
RMM:   9    -0.178098290770E+03    0.26304E-05   -0.62134E-06  3072   0.610E-03    0.101E-02
RMM:  10    -0.178098289712E+03    0.10576E-05   -0.86803E-06  3025   0.681E-03    0.428E-03
RMM:  11    -0.178098289743E+03   -0.30086E-07   -0.10463E-06  1865   0.387E-03
  18 F= -.17809829E+03 E0= -.17807945E+03  d E =-.565313E-01
 Finite differences progress:
  Degree of freedom:   9/153
  Displacement:        1/  2
  Total:              17/306
 bond charge predicted
       N       E                     dE             d eps       ncg     rms          rms(c)
DAV:   1    -0.178090516272E+03    0.77734E-02   -0.51829E+00  3280   0.413E+00    0.200E-01
RMM:   2    -0.178096316152E+03   -0.57999E-02   -0.62983E-02  3260   0.108E+00    0.270E-01
RMM:   3    -0.178098025136E+03   -0.17090E-02   -0.30428E-02  4248   0.512E-01    0.116E-01
RMM:   4    -0.178098175841E+03   -0.15071E-03   -0.31974E-03  3967   0.120E-01    0.105E-01
RMM:   5    -0.178098074228E+03    0.10161E-03   -0.30646E-04  3271   0.715E-02    0.917E-02
RMM:   6    -0.178097923444E+03    0.15078E-03   -0.48780E-04  3446   0.789E-02    0.437E-02
RMM:   7    -0.178097920378E+03    0.30658E-05   -0.17638E-04  3337   0.497E-02    0.276E-02
RMM:   8    -0.178097920979E+03   -0.60129E-06   -0.83337E-05  4025   0.254E-02    0.202E-02
RMM:   9    -0.178097918004E+03    0.29759E-05   -0.75736E-06  2558   0.665E-03    0.157E-02
RMM:  10    -0.178097915474E+03    0.25297E-05   -0.21894E-06  2062   0.400E-03    0.112E-02
RMM:  11    -0.178097914403E+03    0.10711E-05   -0.11468E-05  3195   0.833E-03    0.500E-03
RMM:  12    -0.178097914262E+03    0.14080E-06   -0.56840E-07  1865   0.287E-03
  19 F= -.17809791E+03 E0= -.17807879E+03  d E =-.573712E-01
 Finite differences progress:
  Degree of freedom:   9/153
  Displacement:        2/  2
  Total:              18/306
 bond charge predicted
       N       E                     dE             d eps       ncg     rms          rms(c)
DAV:   1    -0.178093839729E+03    0.40747E-02   -0.25639E+00  3360   0.294E+00    0.997E-02
RMM:   2    -0.178096608272E+03   -0.27685E-02   -0.29174E-02  3255   0.745E-01    0.107E-01
RMM:   3    -0.178098049345E+03   -0.14411E-02   -0.16511E-02  4566   0.343E-01    0.826E-02
RMM:   4    -0.178098011340E+03    0.38004E-04   -0.51785E-04  3812   0.539E-02    0.715E-02
RMM:   5    -0.178097960353E+03    0.50987E-04   -0.10714E-04  3276   0.430E-02    0.591E-02
RMM:   6    -0.178097891736E+03    0.68617E-04   -0.27020E-04  3915   0.486E-02    0.281E-02
RMM:   7    -0.178097887500E+03    0.42354E-05   -0.66174E-05  3273   0.327E-02    0.195E-02
RMM:   8    -0.178097884159E+03    0.33415E-05   -0.21893E-05  3632   0.154E-02    0.120E-02
RMM:   9    -0.178097882890E+03    0.12692E-05   -0.43404E-06  2447   0.556E-03    0.873E-03
RMM:  10    -0.178097882142E+03    0.74802E-06   -0.78870E-06  2855   0.629E-03
  20 F= -.17809788E+03 E0= -.17807890E+03  d E =-.569403E-01
 Finite differences progress:
  Degree of freedom:  10/153
  Displacement:        1/  2
  Total:              19/306
 bond charge predicted
       N       E                     dE             d eps       ncg     rms          rms(c)
DAV:   1    -0.178089042954E+03    0.88399E-02   -0.51512E+00  3260   0.411E+00    0.160E-01
RMM:   2    -0.178095051354E+03   -0.60084E-02   -0.63896E-02  3272   0.107E+00    0.214E-01
RMM:   3    -0.178097798556E+03   -0.27472E-02   -0.35972E-02  4453   0.515E-01    0.106E-01
RMM:   4    -0.178097831029E+03   -0.32474E-04   -0.17615E-03  3810   0.912E-02    0.979E-02
RMM:   5    -0.178097747078E+03    0.83951E-04   -0.20598E-04  3275   0.594E-02    0.830E-02
RMM:   6    -0.178097592463E+03    0.15462E-03   -0.42817E-04  3673   0.666E-02    0.354E-02
RMM:   7    -0.178097590925E+03    0.15376E-05   -0.13498E-04  3285   0.464E-02    0.258E-02
RMM:   8    -0.178097588071E+03    0.28545E-05   -0.51653E-05  3880   0.217E-02    0.167E-02
RMM:   9    -0.178097586011E+03    0.20596E-05   -0.59819E-06  2659   0.612E-03    0.126E-02
RMM:  10    -0.178097583785E+03    0.22261E-05   -0.77705E-06  2815   0.642E-03    0.448E-03
RMM:  11    -0.178097584133E+03   -0.34818E-06   -0.15296E-06  1922   0.436E-03
  21 F= -.17809758E+03 E0= -.17807859E+03  d E =-.569679E-01
 Finite differences progress:
  Degree of freedom:  10/153
  Displacement:        2/  2
  Total:              20/306
 bond charge predicted
       N       E                     dE             d eps       ncg     rms          rms(c)
DAV:   1    -0.178093922124E+03    0.36617E-02   -0.25657E+00  3260   0.290E+00    0.914E-02
RMM:   2    -0.178096671370E+03   -0.27492E-02   -0.28822E-02  3252   0.725E-01    0.881E-02
RMM:   3    -0.178098165678E+03   -0.14943E-02   -0.16412E-02  4546   0.332E-01    0.777E-02
RMM:   4    -0.178098141356E+03    0.24322E-04   -0.54064E-04  3877   0.531E-02    0.672E-02
RMM:   5    -0.178098087825E+03    0.53531E-04   -0.76340E-05  3280   0.350E-02    0.520E-02
RMM:   6    -0.178098041260E+03    0.46566E-04   -0.30469E-04  4182   0.480E-02    0.327E-02
RMM:   7    -0.178098034778E+03    0.64812E-05   -0.48903E-05  3264   0.288E-02    0.243E-02
RMM:   8    -0.178098027911E+03    0.68678E-05   -0.13269E-05  3315   0.133E-02    0.148E-02
RMM:   9    -0.178098024816E+03    0.30948E-05   -0.12793E-05  2996   0.773E-03    0.588E-03
RMM:  10    -0.178098025080E+03   -0.26461E-06   -0.58674E-06  2563   0.656E-03
  22 F= -.17809803E+03 E0= -.17807904E+03  d E =-.569692E-01
 Finite differences progress:
  Degree of freedom:  11/153
  Displacement:        1/  2
  Total:              21/306
 bond charge predicted
       N       E                     dE             d eps       ncg     rms          rms(c)
DAV:   1    -0.178088894010E+03    0.91308E-02   -0.51459E+00  3264   0.412E+00    0.149E-01
RMM:   2    -0.178094791084E+03   -0.58971E-02   -0.62442E-02  3263   0.105E+00    0.190E-01
RMM:   3    -0.178097764791E+03   -0.29737E-02   -0.36331E-02  4508   0.508E-01    0.107E-01
RMM:   4    -0.178097767674E+03   -0.28831E-05   -0.14762E-03  3659   0.840E-02    0.973E-02
RMM:   5    -0.178097678995E+03    0.88680E-04   -0.21002E-04  3266   0.615E-02    0.812E-02
RMM:   6    -0.178097533536E+03    0.14546E-03   -0.44528E-04  3705   0.654E-02    0.361E-02
RMM:   7    -0.178097531608E+03    0.19281E-05   -0.13254E-04  3289   0.464E-02    0.270E-02
RMM:   8    -0.178097526384E+03    0.52237E-05   -0.43950E-05  3690   0.217E-02    0.161E-02
RMM:   9    -0.178097524427E+03    0.19572E-05   -0.91403E-06  2961   0.753E-03    0.117E-02
RMM:  10    -0.178097522792E+03    0.16354E-05   -0.11245E-05  2977   0.734E-03    0.466E-03
RMM:  11    -0.178097522884E+03   -0.92099E-07   -0.10819E-06  1891   0.434E-03
  23 F= -.17809752E+03 E0= -.17807854E+03  d E =-.569352E-01
 Finite differences progress:
  Degree of freedom:  11/153
  Displacement:        2/  2
  Total:              22/306
 bond charge predicted
       N       E                     dE             d eps       ncg     rms          rms(c)
DAV:   1    -0.178093452307E+03    0.40705E-02   -0.25710E+00  3272   0.290E+00    0.901E-02
RMM:   2    -0.178096100728E+03   -0.26484E-02   -0.27623E-02  3256   0.724E-01    0.739E-02
RMM:   3    -0.178097500530E+03   -0.13998E-02   -0.15074E-02  4558   0.318E-01    0.826E-02
RMM:   4    -0.178097463223E+03    0.37307E-04   -0.54782E-04  4411   0.541E-02    0.675E-02
RMM:   5    -0.178097436999E+03    0.26224E-04   -0.36094E-05  3510   0.174E-02    0.599E-02
RMM:   6    -0.178097374490E+03    0.62509E-04   -0.28237E-04  4455   0.466E-02    0.375E-02
RMM:   7    -0.178097378362E+03   -0.38714E-05   -0.82371E-05  3374   0.356E-02    0.363E-02
RMM:   8    -0.178097364512E+03    0.13849E-04   -0.19699E-05  3239   0.189E-02    0.217E-02
RMM:   9    -0.178097358788E+03    0.57240E-05   -0.10823E-05  3215   0.749E-03    0.116E-02
RMM:  10    -0.178097357445E+03    0.13428E-05   -0.98769E-06  3140   0.703E-03    0.464E-03
RMM:  11    -0.178097357498E+03   -0.52161E-07   -0.17404E-06  1883   0.511E-03
  24 F= -.17809736E+03 E0= -.17807845E+03  d E =-.567291E-01
 Finite differences progress:
  Degree of freedom:  12/153
  Displacement:        1/  2
  Total:              23/306
 bond charge predicted
       N       E                     dE             d eps       ncg     rms          rms(c)
DAV:   1    -0.178091215148E+03    0.61423E-02   -0.51864E+00  3268   0.412E+00    0.198E-01
RMM:   2    -0.178097049534E+03   -0.58344E-02   -0.63802E-02  3254   0.108E+00    0.265E-01
RMM:   3    -0.178098828837E+03   -0.17793E-02   -0.30979E-02  4269   0.515E-01    0.111E-01
RMM:   4    -0.178098993232E+03   -0.16439E-03   -0.31724E-03  3958   0.120E-01    0.102E-01
RMM:   5    -0.178098907823E+03    0.85409E-04   -0.26889E-04  3289   0.655E-02    0.893E-02
RMM:   6    -0.178098750289E+03    0.15753E-03   -0.45809E-04  3482   0.750E-02    0.426E-02
RMM:   7    -0.178098747110E+03    0.31788E-05   -0.17369E-04  3324   0.502E-02    0.272E-02
RMM:   8    -0.178098747926E+03   -0.81547E-06   -0.79473E-05  4102   0.241E-02    0.200E-02
RMM:   9    -0.178098746122E+03    0.18038E-05   -0.53357E-06  2371   0.515E-03    0.174E-02
RMM:  10    -0.178098743587E+03    0.25355E-05   -0.12009E-06  1904   0.354E-03    0.134E-02
RMM:  11    -0.178098741365E+03    0.22219E-05   -0.85602E-06  2945   0.754E-03    0.492E-03
RMM:  12    -0.178098741373E+03   -0.82000E-08   -0.10245E-06  1860   0.358E-03
  25 F= -.17809874E+03 E0= -.17807968E+03  d E =-.571794E-01
 Finite differences progress:
  Degree of freedom:  12/153
  Displacement:        2/  2
  Total:              24/306
 bond charge predicted
       N       E                     dE             d eps       ncg     rms          rms(c)
DAV:   1    -0.178094074497E+03    0.46669E-02   -0.25533E+00  3360   0.298E+00    0.136E-01
RMM:   2    -0.178097107175E+03   -0.30327E-02   -0.31599E-02  3273   0.780E-01    0.180E-01
RMM:   3    -0.178098297478E+03   -0.11903E-02   -0.17149E-02  4457   0.368E-01    0.891E-02
RMM:   4    -0.178098288372E+03    0.91056E-05   -0.10868E-03  4349   0.707E-02    0.755E-02
RMM:   5    -0.178098241060E+03    0.47313E-04   -0.10353E-04  3283   0.400E-02    0.639E-02
RMM:   6    -0.178098169068E+03    0.71992E-04   -0.21727E-04  3505   0.517E-02    0.321E-02
RMM:   7    -0.178098160963E+03    0.81050E-05   -0.98420E-05  3278   0.399E-02    0.145E-02
RMM:   8    -0.178098163316E+03   -0.23528E-05   -0.45891E-05  4207   0.173E-02    0.114E-02
RMM:   9    -0.178098162224E+03    0.10913E-05   -0.23321E-06  2126   0.448E-03    0.884E-03
RMM:  10    -0.178098161383E+03    0.84154E-06   -0.11673E-06  1902   0.335E-03
  26 F= -.17809816E+03 E0= -.17807926E+03  d E =-.567131E-01
 Finite differences progress:
  Degree of freedom:  13/153
  Displacement:        1/  2
  Total:              25/306
 bond charge predicted
       N       E                     dE             d eps       ncg     rms          rms(c)
DAV:   1    -0.178088279040E+03    0.98832E-02   -0.51068E+00  3292   0.413E+00    0.171E-01
RMM:   2    -0.178093894804E+03   -0.56158E-02   -0.59791E-02  3294   0.100E+00    0.119E-01
RMM:   3    -0.178097015001E+03   -0.31202E-02   -0.33192E-02  4572   0.463E-01    0.136E-01
RMM:   4    -0.178096867996E+03    0.14701E-03   -0.12492E-03  3843   0.949E-02    0.971E-02
RMM:   5    -0.178096816292E+03    0.51704E-04   -0.24621E-04  3692   0.456E-02    0.844E-02
RMM:   6    -0.178096709028E+03    0.10726E-03   -0.35845E-04  3592   0.607E-02    0.499E-02
RMM:   7    -0.178096696190E+03    0.12838E-04   -0.23921E-04  3385   0.620E-02    0.332E-02
RMM:   8    -0.178096682924E+03    0.13266E-04   -0.53395E-05  3340   0.292E-02    0.159E-02
RMM:   9    -0.178096680598E+03    0.23269E-05   -0.21372E-05  3752   0.112E-02    0.104E-02
RMM:  10    -0.178096678612E+03    0.19861E-05   -0.65985E-06  2472   0.607E-03    0.461E-03
RMM:  11    -0.178096678839E+03   -0.22760E-06   -0.19678E-06  1979   0.538E-03
  27 F= -.17809668E+03 E0= -.17807762E+03  d E =-.571861E-01
 Finite differences progress:
  Degree of freedom:  13/153
  Displacement:        2/  2
  Total:              26/306
 bond charge predicted
       N       E                     dE             d eps       ncg     rms          rms(c)
DAV:   1    -0.178093767955E+03    0.29107E-02   -0.25542E+00  3260   0.290E+00    0.129E-01
RMM:   2    -0.178096499690E+03   -0.27317E-02   -0.29044E-02  3251   0.740E-01    0.139E-01
RMM:   3    -0.178097785373E+03   -0.12857E-02   -0.15676E-02  4520   0.334E-01    0.975E-02
RMM:   4    -0.178097711031E+03    0.74343E-04   -0.62357E-04  4148   0.564E-02    0.738E-02
RMM:   5    -0.178097663858E+03    0.47172E-04   -0.16783E-04  3268   0.532E-02    0.650E-02
RMM:   6    -0.178097595022E+03    0.68837E-04   -0.20060E-04  3385   0.558E-02    0.243E-02
RMM:   7    -0.178097590687E+03    0.43344E-05   -0.65248E-05  3330   0.306E-02    0.958E-03
RMM:   8    -0.178097592588E+03   -0.19007E-05   -0.31751E-05  4020   0.139E-02    0.755E-03
RMM:   9    -0.178097592027E+03    0.56117E-06   -0.13532E-06  1966   0.376E-03
  28 F= -.17809759E+03 E0= -.17807861E+03  d E =-.569504E-01
 Finite differences progress:
  Degree of freedom:  14/153
  Displacement:        1/  2
  Total:              27/306
 bond charge predicted
       N       E                     dE             d eps       ncg     rms          rms(c)
DAV:   1    -0.178089498971E+03    0.80936E-02   -0.51189E+00  3264   0.415E+00    0.203E-01
RMM:   2    -0.178095576884E+03   -0.60779E-02   -0.63720E-02  3254   0.106E+00    0.256E-01
RMM:   3    -0.178098098587E+03   -0.25217E-02   -0.35818E-02  4379   0.524E-01    0.135E-01
RMM:   4    -0.178098078886E+03    0.19701E-04   -0.24235E-03  4318   0.107E-01    0.110E-01
RMM:   5    -0.178097980468E+03    0.98418E-04   -0.32664E-04  3271   0.731E-02    0.969E-02
RMM:   6    -0.178097817725E+03    0.16274E-03   -0.45581E-04  3418   0.792E-02    0.366E-02
RMM:   7    -0.178097809989E+03    0.77366E-05   -0.14722E-04  3326   0.465E-02    0.180E-02
RMM:   8    -0.178097812844E+03   -0.28551E-05   -0.71927E-05  4176   0.219E-02    0.132E-02
RMM:   9    -0.178097811205E+03    0.16389E-05   -0.41900E-06  2253   0.587E-03    0.959E-03
RMM:  10    -0.178097809899E+03    0.13062E-05   -0.29379E-06  2075   0.482E-03    0.580E-03
RMM:  11    -0.178097810290E+03   -0.39101E-06   -0.49348E-06  2432   0.622E-03
  29 F= -.17809781E+03 E0= -.17807883E+03  d E =-.569514E-01
 Finite differences progress:
  Degree of freedom:  14/153
  Displacement:        2/  2
  Total:              28/306
 bond charge predicted
       N       E                     dE             d eps       ncg     rms          rms(c)
DAV:   1    -0.178093598630E+03    0.42113E-02   -0.25668E+00  3280   0.290E+00    0.126E-01
RMM:   2    -0.178096100473E+03   -0.25018E-02   -0.26991E-02  3251   0.730E-01    0.121E-01
RMM:   3    -0.178097219452E+03   -0.11190E-02   -0.13288E-02  4528   0.308E-01    0.101E-01
RMM:   4    -0.178097104114E+03    0.11534E-03   -0.48564E-04  3881   0.544E-02    0.684E-02
RMM:   5    -0.178097062947E+03    0.41167E-04   -0.19023E-04  3281   0.572E-02    0.595E-02
RMM:   6    -0.178097017170E+03    0.45777E-04   -0.16344E-04  3298   0.526E-02    0.253E-02
RMM:   7    -0.178097011870E+03    0.52993E-05   -0.62870E-05  3336   0.300E-02    0.702E-03
RMM:   8    -0.178097014817E+03   -0.29465E-05   -0.32778E-05  3943   0.133E-02    0.607E-03
RMM:   9    -0.178097014513E+03    0.30415E-06   -0.11205E-06  1916   0.400E-03
  30 F= -.17809701E+03 E0= -.17807806E+03  d E =-.568739E-01
 Finite differences progress:
  Degree of freedom:  15/153
  Displacement:        1/  2
  Total:              29/306
 bond charge predicted
       N       E                     dE             d eps       ncg     rms          rms(c)
DAV:   1    -0.178091456265E+03    0.55586E-02   -0.51389E+00  3300   0.412E+00    0.174E-01
RMM:   2    -0.178096582008E+03   -0.51257E-02   -0.55486E-02  3262   0.988E-01    0.156E-01
RMM:   3    -0.178099245829E+03   -0.26638E-02   -0.29727E-02  4512   0.447E-01    0.143E-01
RMM:   4    -0.178099057210E+03    0.18862E-03   -0.11868E-03  3827   0.824E-02    0.999E-02
RMM:   5    -0.178098969253E+03    0.87956E-04   -0.32256E-04  3295   0.723E-02    0.860E-02
RMM:   6    -0.178098868508E+03    0.10075E-03   -0.44083E-04  3450   0.769E-02    0.399E-02
RMM:   7    -0.178098854856E+03    0.13652E-04   -0.16181E-04  3295   0.509E-02    0.144E-02
RMM:   8    -0.178098858717E+03   -0.38604E-05   -0.75379E-05  4235   0.226E-02    0.962E-03
RMM:   9    -0.178098857734E+03    0.98263E-06   -0.38147E-06  2218   0.510E-03
  31 F= -.17809886E+03 E0= -.17807985E+03  d E =-.570253E-01
 Finite differences progress:
  Degree of freedom:  15/153
  Displacement:        2/  2
  Total:              30/306
 bond charge predicted
       N       E                     dE             d eps       ncg     rms          rms(c)
DAV:   1    -0.178094107811E+03    0.47509E-02   -0.25489E+00  3324   0.297E+00    0.126E-01
RMM:   2    -0.178097012484E+03   -0.29047E-02   -0.30748E-02  3244   0.777E-01    0.161E-01
RMM:   3    -0.178098288260E+03   -0.12758E-02   -0.16981E-02  4521   0.360E-01    0.882E-02
RMM:   4    -0.178098249551E+03    0.38709E-04   -0.76417E-04  4469   0.622E-02    0.759E-02
RMM:   5    -0.178098199751E+03    0.49800E-04   -0.85390E-05  3286   0.365E-02    0.649E-02
RMM:   6    -0.178098126494E+03    0.73257E-04   -0.23875E-04  3702   0.509E-02    0.305E-02
RMM:   7    -0.178098119189E+03    0.73044E-05   -0.87121E-05  3266   0.381E-02    0.154E-02
RMM:   8    -0.178098120201E+03   -0.10114E-05   -0.36851E-05  4006   0.168E-02    0.111E-02
RMM:   9    -0.178098119282E+03    0.91878E-06   -0.28053E-06  2224   0.510E-03
  32 F= -.17809812E+03 E0= -.17807908E+03  d E =-.571155E-01
 Finite differences progress:
  Degree of freedom:  16/153
  Displacement:        1/  2
  Total:              31/306
 bond charge predicted
       N       E                     dE             d eps       ncg     rms          rms(c)
DAV:   1    -0.178088738950E+03    0.93813E-02   -0.51327E+00  3272   0.411E+00    0.150E-01
RMM:   2    -0.178094605540E+03   -0.58666E-02   -0.62098E-02  3260   0.105E+00    0.186E-01
RMM:   3    -0.178097621717E+03   -0.30162E-02   -0.36376E-02  4507   0.506E-01    0.113E-01
RMM:   4    -0.178097595003E+03    0.26715E-04   -0.13608E-03  3624   0.821E-02    0.101E-01
RMM:   5    -0.178097477088E+03    0.11791E-03   -0.24706E-04  3262   0.678E-02    0.814E-02
RMM:   6    -0.178097342057E+03    0.13503E-03   -0.51280E-04  3711   0.703E-02    0.397E-02
RMM:   7    -0.178097334297E+03    0.77599E-05   -0.12792E-04  3269   0.460E-02    0.266E-02
RMM:   8    -0.178097328909E+03    0.53887E-05   -0.44607E-05  3748   0.212E-02    0.157E-02
RMM:   9    -0.178097326866E+03    0.20424E-05   -0.90426E-06  2878   0.768E-03    0.110E-02
RMM:  10    -0.178097325705E+03    0.11611E-05   -0.12510E-05  3074   0.765E-03    0.487E-03
RMM:  11    -0.178097325719E+03   -0.14312E-07   -0.11166E-06  1893   0.436E-03
  33 F= -.17809733E+03 E0= -.17807840E+03  d E =-.567865E-01
 Finite differences progress:
  Degree of freedom:  16/153
  Displacement:        2/  2
  Total:              32/306
 bond charge predicted
       N       E                     dE             d eps       ncg     rms          rms(c)
DAV:   1    -0.178093571479E+03    0.37542E-02   -0.25567E+00  3244   0.289E+00    0.991E-02
RMM:   2    -0.178096361706E+03   -0.27902E-02   -0.29525E-02  3258   0.741E-01    0.111E-01
RMM:   3    -0.178097798070E+03   -0.14364E-02   -0.16512E-02  4533   0.336E-01    0.796E-02
RMM:   4    -0.178097770573E+03    0.27497E-04   -0.53650E-04  3599   0.524E-02    0.697E-02
RMM:   5    -0.178097708991E+03    0.61582E-04   -0.12216E-04  3258   0.480E-02    0.556E-02
RMM:   6    -0.178097652199E+03    0.56792E-04   -0.26261E-04  3758   0.496E-02    0.290E-02
RMM:   7    -0.178097646445E+03    0.57533E-05   -0.59253E-05  3257   0.315E-02    0.188E-02
RMM:   8    -0.178097643186E+03    0.32598E-05   -0.19689E-05  3646   0.142E-02    0.107E-02
RMM:   9    -0.178097642223E+03    0.96299E-06   -0.48625E-06  2681   0.558E-03
  34 F= -.17809764E+03 E0= -.17807870E+03  d E =-.568298E-01
 Finite differences progress:
  Degree of freedom:  17/153
  Displacement:        1/  2
  Total:              33/306
 bond charge predicted
       N       E                     dE             d eps       ncg     rms          rms(c)
DAV:   1    -0.178088990916E+03    0.86523E-02   -0.51323E+00  3248   0.412E+00    0.146E-01
RMM:   2    -0.178094820458E+03   -0.58295E-02   -0.61547E-02  3250   0.104E+00    0.172E-01
RMM:   3    -0.178097955569E+03   -0.31351E-02   -0.36646E-02  4527   0.505E-01    0.113E-01
RMM:   4    -0.178097914606E+03    0.40963E-04   -0.12552E-03  3686   0.800E-02    0.997E-02
RMM:   5    -0.178097791156E+03    0.12345E-03   -0.24524E-04  3264   0.670E-02    0.793E-02
RMM:   6    -0.178097669914E+03    0.12124E-03   -0.53965E-04  3786   0.713E-02    0.395E-02
RMM:   7    -0.178097661304E+03    0.86098E-05   -0.11751E-04  3270   0.439E-02    0.275E-02
RMM:   8    -0.178097654525E+03    0.67798E-05   -0.40305E-05  3637   0.207E-02    0.163E-02
RMM:   9    -0.178097652000E+03    0.25244E-05   -0.10110E-05  2986   0.816E-03    0.110E-02
RMM:  10    -0.178097651004E+03    0.99568E-06   -0.14402E-05  3198   0.818E-03    0.513E-03
RMM:  11    -0.178097650881E+03    0.12373E-06   -0.11860E-06  1895   0.450E-03
  35 F= -.17809765E+03 E0= -.17807863E+03  d E =-.570579E-01
 Finite differences progress:
  Degree of freedom:  17/153
  Displacement:        2/  2
  Total:              34/306
 bond charge predicted
       N       E                     dE             d eps       ncg     rms          rms(c)
DAV:   1    -0.178094573202E+03    0.30778E-02   -0.25671E+00  3256   0.290E+00    0.958E-02
RMM:   2    -0.178097201921E+03   -0.26287E-02   -0.27767E-02  3253   0.732E-01    0.819E-02
RMM:   3    -0.178098560259E+03   -0.13583E-02   -0.14822E-02  4563   0.317E-01    0.873E-02
RMM:   4    -0.178098502682E+03    0.57578E-04   -0.51138E-04  4378   0.520E-02    0.694E-02
RMM:   5    -0.178098454398E+03    0.48284E-04   -0.46379E-05  3274   0.258E-02    0.561E-02
RMM:   6    -0.178098400391E+03    0.54007E-04   -0.30810E-04  4328   0.489E-02    0.328E-02
RMM:   7    -0.178098391428E+03    0.89626E-05   -0.51593E-05  3247   0.300E-02    0.207E-02
RMM:   8    -0.178098385998E+03    0.54305E-05   -0.11887E-05  3314   0.129E-02    0.118E-02
RMM:   9    -0.178098384383E+03    0.16144E-05   -0.66164E-06  2999   0.593E-03    0.693E-03
RMM:  10    -0.178098384275E+03    0.10816E-06   -0.61286E-06  2828   0.631E-03
  36 F= -.17809838E+03 E0= -.17807952E+03  d E =-.565853E-01
 Finite differences progress:
  Degree of freedom:  18/153
  Displacement:        1/  2
  Total:              35/306
 bond charge predicted
       N       E                     dE             d eps       ncg     rms          rms(c)
DAV:   1    -0.178090267793E+03    0.81166E-02   -0.51782E+00  3268   0.412E+00    0.204E-01
RMM:   2    -0.178096064502E+03   -0.57967E-02   -0.63277E-02  3256   0.108E+00    0.272E-01
RMM:   3    -0.178097769699E+03   -0.17052E-02   -0.30627E-02  4224   0.518E-01    0.118E-01
RMM:   4    -0.178097923294E+03   -0.15360E-03   -0.33974E-03  3965   0.125E-01    0.106E-01
RMM:   5    -0.178097815932E+03    0.10736E-03   -0.33716E-04  3274   0.748E-02    0.927E-02
RMM:   6    -0.178097664840E+03    0.15109E-03   -0.50509E-04  3449   0.801E-02    0.443E-02
RMM:   7    -0.178097658898E+03    0.59426E-05   -0.17611E-04  3314   0.507E-02    0.261E-02
RMM:   8    -0.178097659735E+03   -0.83759E-06   -0.82863E-05  4044   0.251E-02    0.186E-02
RMM:   9    -0.178097657253E+03    0.24825E-05   -0.68046E-06  2517   0.637E-03    0.146E-02
RMM:  10    -0.178097655012E+03    0.22409E-05   -0.21019E-06  2070   0.389E-03    0.106E-02
RMM:  11    -0.178097654033E+03    0.97874E-06   -0.89125E-06  2975   0.765E-03
  37 F= -.17809765E+03 E0= -.17807855E+03  d E =-.573179E-01
 Finite differences progress:
  Degree of freedom:  18/153
  Displacement:        2/  2
  Total:              36/306
 bond charge predicted
       N       E                     dE             d eps       ncg     rms          rms(c)
DAV:   1    -0.178094125814E+03    0.35292E-02   -0.25594E+00  3340   0.294E+00    0.106E-01
RMM:   2    -0.178096912122E+03   -0.27863E-02   -0.29595E-02  3252   0.754E-01    0.119E-01
RMM:   3    -0.178098310486E+03   -0.13984E-02   -0.16477E-02  4547   0.345E-01    0.842E-02
RMM:   4    -0.178098270454E+03    0.40032E-04   -0.53559E-04  3828   0.541E-02    0.725E-02
RMM:   5    -0.178098216739E+03    0.53715E-04   -0.11430E-04  3273   0.448E-02    0.604E-02
RMM:   6    -0.178098146859E+03    0.69880E-04   -0.25301E-04  3746   0.499E-02    0.281E-02
RMM:   7    -0.178098142513E+03    0.43459E-05   -0.77662E-05  3273   0.356E-02    0.173E-02
RMM:   8    -0.178098140810E+03    0.17032E-05   -0.27056E-05  3790   0.161E-02    0.102E-02
RMM:   9    -0.178098139972E+03    0.83706E-06   -0.38243E-06  2294   0.481E-03
  38 F= -.17809814E+03 E0= -.17807926E+03  d E =-.566417E-01
 Finite differences progress:
  Degree of freedom:  19/153
  Displacement:        1/  2
  Total:              37/306
 bond charge predicted
       N       E                     dE             d eps       ncg     rms          rms(c)
DAV:   1    -0.178088706144E+03    0.94347E-02   -0.51361E+00  3272   0.412E+00    0.143E-01
RMM:   2    -0.178094537162E+03   -0.58310E-02   -0.61314E-02  3266   0.104E+00    0.172E-01
RMM:   3    -0.178097625538E+03   -0.30884E-02   -0.36222E-02  4520   0.502E-01    0.110E-01
RMM:   4    -0.178097602310E+03    0.23229E-04   -0.13235E-03  3664   0.814E-02    0.977E-02
RMM:   5    -0.178097490577E+03    0.11173E-03   -0.23455E-04  3258   0.655E-02    0.787E-02
RMM:   6    -0.178097364715E+03    0.12586E-03   -0.50717E-04  3758   0.688E-02    0.379E-02
RMM:   7    -0.178097359684E+03    0.50308E-05   -0.11820E-04  3285   0.437E-02    0.282E-02
RMM:   8    -0.178097352805E+03    0.68790E-05   -0.40193E-05  3626   0.210E-02    0.169E-02
RMM:   9    -0.178097349994E+03    0.28109E-05   -0.10156E-05  3011   0.818E-03    0.114E-02
RMM:  10    -0.178097348932E+03    0.10627E-05   -0.16088E-05  3281   0.843E-03    0.543E-03
RMM:  11    -0.178097348574E+03    0.35786E-06   -0.97520E-07  1886   0.387E-03
  39 F= -.17809735E+03 E0= -.17807827E+03  d E =-.572422E-01
 Finite differences progress:
  Degree of freedom:  19/153
  Displacement:        2/  2
  Total:              38/306
 bond charge predicted
       N       E                     dE             d eps       ncg     rms          rms(c)
DAV:   1    -0.178093594557E+03    0.37544E-02   -0.25572E+00  3264   0.290E+00    0.979E-02
RMM:   2    -0.178096378633E+03   -0.27841E-02   -0.29426E-02  3260   0.741E-01    0.112E-01
RMM:   3    -0.178097797411E+03   -0.14188E-02   -0.16398E-02  4542   0.335E-01    0.773E-02
RMM:   4    -0.178097773354E+03    0.24057E-04   -0.53364E-04  3662   0.523E-02    0.681E-02
RMM:   5    -0.178097718636E+03    0.54718E-04   -0.11379E-04  3251   0.460E-02    0.551E-02
RMM:   6    -0.178097661172E+03    0.57465E-04   -0.24926E-04  3767   0.479E-02    0.281E-02
RMM:   7    -0.178097656201E+03    0.49713E-05   -0.57241E-05  3273   0.307E-02    0.194E-02
RMM:   8    -0.178097652607E+03    0.35933E-05   -0.18838E-05  3622   0.141E-02    0.111E-02
RMM:   9    -0.178097651584E+03    0.10228E-05   -0.46514E-06  2690   0.560E-03    0.775E-03
RMM:  10    -0.178097651247E+03    0.33726E-06   -0.63491E-06  2504   0.569E-03
  40 F= -.17809765E+03 E0= -.17807869E+03  d E =-.568864E-01
 Finite differences progress:
  Degree of freedom:  20/153
  Displacement:        1/  2
  Total:              39/306
 bond charge predicted
       N       E                     dE             d eps       ncg     rms          rms(c)
DAV:   1    -0.178089036520E+03    0.86151E-02   -0.51354E+00  3292   0.413E+00    0.150E-01
RMM:   2    -0.178094938651E+03   -0.59021E-02   -0.62419E-02  3259   0.105E+00    0.190E-01
RMM:   3    -0.178097933103E+03   -0.29945E-02   -0.36407E-02  4506   0.509E-01    0.110E-01
RMM:   4    -0.178097909819E+03    0.23284E-04   -0.13271E-03  3671   0.818E-02    0.988E-02
RMM:   5    -0.178097797082E+03    0.11274E-03   -0.22729E-04  3260   0.644E-02    0.788E-02
RMM:   6    -0.178097668196E+03    0.12889E-03   -0.49720E-04  3759   0.689E-02    0.379E-02
RMM:   7    -0.178097661502E+03    0.66942E-05   -0.12001E-04  3274   0.444E-02    0.261E-02
RMM:   8    -0.178097656217E+03    0.52851E-05   -0.42673E-05  3743   0.207E-02    0.158E-02
RMM:   9    -0.178097653804E+03    0.24127E-05   -0.82475E-06  2837   0.738E-03    0.109E-02
RMM:  10    -0.178097652621E+03    0.11827E-05   -0.11498E-05  2999   0.746E-03    0.455E-03
RMM:  11    -0.178097652734E+03   -0.11262E-06   -0.10471E-06  1898   0.406E-03
  41 F= -.17809765E+03 E0= -.17807865E+03  d E =-.570166E-01
 Finite differences progress:
  Degree of freedom:  20/153
  Displacement:        2/  2
  Total:              40/306
 bond charge predicted
       N       E                     dE             d eps       ncg     rms          rms(c)
DAV:   1    -0.178094519591E+03    0.31330E-02   -0.25678E+00  3260   0.291E+00    0.929E-02
RMM:   2    -0.178097157498E+03   -0.26379E-02   -0.27673E-02  3258   0.729E-01    0.794E-02
RMM:   3    -0.178098524884E+03   -0.13674E-02   -0.14870E-02  4567   0.317E-01    0.849E-02
RMM:   4    -0.178098478822E+03    0.46062E-04   -0.53191E-04  4389   0.533E-02    0.689E-02
RMM:   5    -0.178098441283E+03    0.37539E-04   -0.37297E-05  3298   0.223E-02    0.585E-02
RMM:   6    -0.178098382338E+03    0.58945E-04   -0.29422E-04  4430   0.468E-02    0.367E-02
RMM:   7    -0.178098374192E+03    0.81462E-05   -0.65029E-05  3263   0.327E-02    0.271E-02
RMM:   8    -0.178098365448E+03    0.87435E-05   -0.14851E-05  3249   0.159E-02    0.157E-02
RMM:   9    -0.178098362712E+03    0.27366E-05   -0.64667E-06  3096   0.621E-03    0.101E-02
RMM:  10    -0.178098361628E+03    0.10840E-05   -0.86979E-06  3042   0.683E-03    0.426E-03
RMM:  11    -0.178098361653E+03   -0.24920E-07   -0.10809E-06  1861   0.394E-03
  42 F= -.17809836E+03 E0= -.17807952E+03  d E =-.565270E-01
 Finite differences progress:
  Degree of freedom:  21/153
  Displacement:        1/  2
  Total:              41/306
 bond charge predicted
       N       E                     dE             d eps       ncg     rms          rms(c)
DAV:   1    -0.178090426231E+03    0.79354E-02   -0.51828E+00  3280   0.413E+00    0.200E-01
RMM:   2    -0.178096220635E+03   -0.57944E-02   -0.63008E-02  3260   0.108E+00    0.270E-01
RMM:   3    -0.178097939906E+03   -0.17193E-02   -0.30514E-02  4254   0.513E-01    0.116E-01
RMM:   4    -0.178098088218E+03   -0.14831E-03   -0.31732E-03  3967   0.120E-01    0.105E-01
RMM:   5    -0.178097986703E+03    0.10151E-03   -0.30662E-04  3271   0.716E-02    0.919E-02
RMM:   6    -0.178097835421E+03    0.15128E-03   -0.48840E-04  3455   0.789E-02    0.436E-02
RMM:   7    -0.178097832339E+03    0.30820E-05   -0.17553E-04  3341   0.496E-02    0.275E-02
RMM:   8    -0.178097832988E+03   -0.64843E-06   -0.82769E-05  4011   0.254E-02    0.201E-02
RMM:   9    -0.178097830050E+03    0.29381E-05   -0.77567E-06  2572   0.673E-03    0.156E-02
RMM:  10    -0.178097827544E+03    0.25052E-05   -0.22163E-06  2063   0.404E-03    0.110E-02
RMM:  11    -0.178097826624E+03    0.92070E-06   -0.11215E-05  3173   0.823E-03    0.506E-03
RMM:  12    -0.178097826467E+03    0.15657E-06   -0.56340E-07  1866   0.290E-03
  43 F= -.17809783E+03 E0= -.17807870E+03  d E =-.573751E-01
 Finite differences progress:
  Degree of freedom:  21/153
  Displacement:        2/  2
  Total:              42/306
 bond charge predicted
       N       E                     dE             d eps       ncg     rms          rms(c)
DAV:   1    -0.178094061695E+03    0.37649E-02   -0.25641E+00  3360   0.296E+00    0.129E-01
RMM:   2    -0.178096697859E+03   -0.26362E-02   -0.28674E-02  3252   0.744E-01    0.111E-01
RMM:   3    -0.178098151674E+03   -0.14538E-02   -0.16306E-02  4558   0.342E-01    0.107E-01
RMM:   4    -0.178098031777E+03    0.11990E-03   -0.55296E-04  3913   0.612E-02    0.749E-02
RMM:   5    -0.178097969328E+03    0.62449E-04   -0.16924E-04  3279   0.538E-02    0.606E-02
RMM:   6    -0.178097915229E+03    0.54099E-04   -0.19673E-04  3378   0.538E-02    0.243E-02
RMM:   7    -0.178097911390E+03    0.38394E-05   -0.80599E-05  3400   0.341E-02    0.910E-03
RMM:   8    -0.178097913085E+03   -0.16953E-05   -0.31210E-05  4002   0.145E-02    0.609E-03
RMM:   9    -0.178097912832E+03    0.25307E-06   -0.17356E-06  2036   0.356E-03
  44 F= -.17809791E+03 E0= -.17807893E+03  d E =-.569437E-01
 Finite differences progress:
  Degree of freedom:  22/153
  Displacement:        1/  2
  Total:              43/306
 bond charge predicted
       N       E                     dE             d eps       ncg     rms          rms(c)
DAV:   1    -0.178090086249E+03    0.78268E-02   -0.51538E+00  3276   0.389E+00    0.220E-01
RMM:   2    -0.178095409728E+03   -0.53235E-02   -0.59482E-02  3250   0.976E-01    0.190E-01
RMM:   3    -0.178098414261E+03   -0.30045E-02   -0.34587E-02  4414   0.464E-01    0.173E-01
RMM:   4    -0.178098058316E+03    0.35594E-03   -0.14932E-03  3754   0.971E-02    0.103E-01
RMM:   5    -0.178097964242E+03    0.94074E-04   -0.51378E-04  3292   0.931E-02    0.883E-02
RMM:   6    -0.178097851789E+03    0.11245E-03   -0.37669E-04  3300   0.846E-02    0.314E-02
RMM:   7    -0.178097847653E+03    0.41359E-05   -0.13822E-04  3542   0.401E-02    0.964E-03
RMM:   8    -0.178097850437E+03   -0.27839E-05   -0.40599E-05  3927   0.158E-02    0.772E-03
RMM:   9    -0.178097849911E+03    0.52602E-06   -0.26994E-06  2103   0.588E-03
  45 F= -.17809785E+03 E0= -.17807886E+03  d E =-.569579E-01
 Finite differences progress:
  Degree of freedom:  22/153
  Displacement:        2/  2
  Total:              44/306
 bond charge predicted
       N       E                     dE             d eps       ncg     rms          rms(c)
DAV:   1    -0.178093271744E+03    0.45787E-02   -0.25473E+00  3272   0.275E+00    0.146E-01
RMM:   2    -0.178096028499E+03   -0.27568E-02   -0.30130E-02  3259   0.698E-01    0.133E-01
RMM:   3    -0.178097525056E+03   -0.14966E-02   -0.17278E-02  4491   0.325E-01    0.114E-01
RMM:   4    -0.178097376950E+03    0.14811E-03   -0.63827E-04  3838   0.617E-02    0.753E-02
RMM:   5    -0.178097328333E+03    0.48617E-04   -0.25840E-04  3290   0.657E-02    0.672E-02
RMM:   6    -0.178097259511E+03    0.68822E-04   -0.20227E-04  3342   0.605E-02    0.178E-02
RMM:   7    -0.178097260017E+03   -0.50642E-06   -0.62054E-05  3569   0.250E-02    0.868E-03
RMM:   8    -0.178097260415E+03   -0.39805E-06   -0.15828E-05  3331   0.113E-02    0.589E-03
RMM:   9    -0.178097260273E+03    0.14208E-06   -0.26579E-06  2126   0.500E-03
  46 F= -.17809726E+03 E0= -.17807824E+03  d E =-.570688E-01
 Finite differences progress:
  Degree of freedom:  23/153
  Displacement:        1/  2
  Total:              45/306
 bond charge predicted
       N       E                     dE             d eps       ncg     rms          rms(c)
DAV:   1    -0.178089289562E+03    0.79709E-02   -0.50803E+00  3304   0.385E+00    0.181E-01
RMM:   2    -0.178094805672E+03   -0.55161E-02   -0.60447E-02  3270   0.961E-01    0.145E-01
RMM:   3    -0.178097890396E+03   -0.30847E-02   -0.33202E-02  4474   0.435E-01    0.143E-01
RMM:   4    -0.178097683200E+03    0.20720E-03   -0.12920E-03  3727   0.911E-02    0.988E-02
RMM:   5    -0.178097565048E+03    0.11815E-03   -0.28794E-04  3288   0.664E-02    0.753E-02
RMM:   6    -0.178097493612E+03    0.71436E-04   -0.45558E-04  3525   0.702E-02    0.386E-02
RMM:   7    -0.178097476875E+03    0.16737E-04   -0.12628E-04  3305   0.469E-02    0.156E-02
RMM:   8    -0.178097475956E+03    0.91965E-06   -0.42935E-05  3900   0.187E-02    0.783E-03
RMM:   9    -0.178097475562E+03    0.39391E-06   -0.64824E-06  2522   0.643E-03
  47 F= -.17809748E+03 E0= -.17807853E+03  d E =-.568321E-01
 Finite differences progress:
  Degree of freedom:  23/153
  Displacement:        2/  2
  Total:              46/306
 bond charge predicted
       N       E                     dE             d eps       ncg     rms          rms(c)
DAV:   1    -0.178097811116E+03   -0.33516E-03   -0.25200E+00  3292   0.274E+00    0.180E-01
RMM:   2    -0.178101090784E+03   -0.32797E-02   -0.35003E-02  3263   0.728E-01    0.223E-01
RMM:   3    -0.178102120360E+03   -0.10296E-02   -0.18960E-02  3859   0.373E-01    0.983E-02
RMM:   4    -0.178102221002E+03   -0.10064E-03   -0.25852E-03  4393   0.123E-01    0.774E-02
RMM:   5    -0.178102179943E+03    0.41059E-04   -0.15779E-04  3308   0.475E-02    0.664E-02
RMM:   6    -0.178102117356E+03    0.62587E-04   -0.21797E-04  3460   0.523E-02    0.302E-02
RMM:   7    -0.178102108678E+03    0.86778E-05   -0.71877E-05  3309   0.349E-02    0.141E-02
RMM:   8    -0.178102108469E+03    0.20955E-06   -0.25033E-05  3570   0.155E-02    0.909E-03
RMM:   9    -0.178102107805E+03    0.66378E-06   -0.48501E-06  2538   0.709E-03
  48 F= -.17810211E+03 E0= -.17808308E+03  d E =-.570794E-01
 Finite differences progress:
  Degree of freedom:  24/153
  Displacement:        1/  2
  Total:              47/306
 bond charge predicted
       N       E                     dE             d eps       ncg     rms          rms(c)
DAV:   1    -0.178084346597E+03    0.17762E-01   -0.50529E+00  3328   0.376E+00    0.209E-01
RMM:   2    -0.178089373579E+03   -0.50270E-02   -0.56236E-02  3272   0.905E-01    0.142E-01
RMM:   3    -0.178092450618E+03   -0.30770E-02   -0.32181E-02  4327   0.426E-01    0.163E-01
RMM:   4    -0.178092169913E+03    0.28070E-03   -0.15412E-03  3421   0.122E-01    0.939E-02
RMM:   5    -0.178092113539E+03    0.56375E-04   -0.53495E-04  3492   0.744E-02    0.765E-02
RMM:   6    -0.178092043084E+03    0.70455E-04   -0.37059E-04  3356   0.742E-02    0.359E-02
RMM:   7    -0.178092030103E+03    0.12981E-04   -0.11787E-04  3275   0.448E-02    0.123E-02
RMM:   8    -0.178092032862E+03   -0.27589E-05   -0.52069E-05  3900   0.209E-02    0.782E-03
RMM:   9    -0.178092032652E+03    0.20929E-06   -0.74958E-06  2669   0.789E-03
  49 F= -.17809203E+03 E0= -.17807309E+03  d E =-.568396E-01
 Finite differences progress:
  Degree of freedom:  24/153
  Displacement:        2/  2
  Total:              48/306
 bond charge predicted
       N       E                     dE             d eps       ncg     rms          rms(c)
DAV:   1    -0.178092509856E+03   -0.47699E-03   -0.25224E+00  3408   0.289E+00    0.164E-01
RMM:   2    -0.178095573246E+03   -0.30634E-02   -0.33378E-02  3251   0.764E-01    0.204E-01
RMM:   3    -0.178096774060E+03   -0.12008E-02   -0.18663E-02  4302   0.374E-01    0.953E-02
RMM:   4    -0.178096807139E+03   -0.33079E-04   -0.17539E-03  4231   0.930E-02    0.779E-02
RMM:   5    -0.178096761557E+03    0.45582E-04   -0.11292E-04  3289   0.406E-02    0.651E-02
RMM:   6    -0.178096703912E+03    0.57645E-04   -0.21371E-04  3444   0.537E-02    0.373E-02
RMM:   7    -0.178096689631E+03    0.14282E-04   -0.10628E-04  3318   0.422E-02    0.138E-02
RMM:   8    -0.178096690891E+03   -0.12600E-05   -0.39481E-05  4093   0.165E-02    0.101E-02
RMM:   9    -0.178096689809E+03    0.10820E-05   -0.27510E-06  2159   0.512E-03    0.711E-03
RMM:  10    -0.178096689244E+03    0.56452E-06   -0.13485E-06  1915   0.376E-03
  50 F= -.17809669E+03 E0= -.17807762E+03  d E =-.572005E-01
 Finite differences progress:
  Degree of freedom:  25/153
  Displacement:        1/  2
  Total:              49/306
 bond charge predicted
       N       E                     dE             d eps       ncg     rms          rms(c)
DAV:   1    -0.178089555370E+03    0.71344E-02   -0.51065E+00  3276   0.417E+00    0.225E-01
RMM:   2    -0.178096113764E+03   -0.65584E-02   -0.68106E-02  3273   0.109E+00    0.304E-01
RMM:   3    -0.178098212068E+03   -0.20983E-02   -0.36537E-02  4171   0.553E-01    0.129E-01
RMM:   4    -0.178098395750E+03   -0.18368E-03   -0.44465E-03  4493   0.146E-01    0.107E-01
RMM:   5    -0.178098312725E+03    0.83025E-04   -0.25973E-04  3280   0.608E-02    0.932E-02
RMM:   6    -0.178098165781E+03    0.14694E-03   -0.44035E-04  3449   0.734E-02    0.422E-02
RMM:   7    -0.178098152632E+03    0.13149E-04   -0.15887E-04  3281   0.505E-02    0.213E-02
RMM:   8    -0.178098154241E+03   -0.16082E-05   -0.73441E-05  4035   0.235E-02    0.150E-02
RMM:   9    -0.178098152001E+03    0.22400E-05   -0.72997E-06  2553   0.804E-03    0.100E-02
RMM:  10    -0.178098150685E+03    0.13158E-05   -0.40179E-06  2223   0.546E-03    0.586E-03
RMM:  11    -0.178098151032E+03   -0.34689E-06   -0.51166E-06  2483   0.659E-03
  51 F= -.17809815E+03 E0= -.17807925E+03  d E =-.567066E-01
 Finite differences progress:
  Degree of freedom:  25/153
  Displacement:        2/  2
  Total:              50/306
 bond charge predicted
       N       E                     dE             d eps       ncg     rms          rms(c)
DAV:   1    -0.178093749536E+03    0.44011E-02   -0.25406E+00  3280   0.291E+00    0.121E-01
RMM:   2    -0.178096387346E+03   -0.26378E-02   -0.28123E-02  3273   0.713E-01    0.774E-02
RMM:   3    -0.178097751346E+03   -0.13640E-02   -0.14296E-02  4429   0.305E-01    0.864E-02
RMM:   4    -0.178097728175E+03    0.23171E-04   -0.10301E-03  3774   0.829E-02    0.625E-02
RMM:   5    -0.178097710271E+03    0.17904E-04   -0.14600E-04  3486   0.366E-02    0.543E-02
RMM:   6    -0.178097662895E+03    0.47377E-04   -0.16393E-04  3506   0.382E-02    0.249E-02
RMM:   7    -0.178097664090E+03   -0.11954E-05   -0.85910E-05  3323   0.362E-02    0.206E-02
RMM:   8    -0.178097659639E+03    0.44504E-05   -0.25158E-05  3366   0.195E-02    0.102E-02
RMM:   9    -0.178097658131E+03    0.15088E-05   -0.93928E-06  3012   0.800E-03    0.523E-03
RMM:  10    -0.178097658030E+03    0.10047E-06   -0.31462E-06  2186   0.497E-03
  52 F= -.17809766E+03 E0= -.17807867E+03  d E =-.569584E-01
 Finite differences progress:
  Degree of freedom:  26/153
  Displacement:        1/  2
  Total:              51/306
 bond charge predicted
       N       E                     dE             d eps       ncg     rms          rms(c)
DAV:   1    -0.178089442089E+03    0.82160E-02   -0.51184E+00  3264   0.415E+00    0.202E-01
RMM:   2    -0.178095512287E+03   -0.60702E-02   -0.63618E-02  3252   0.106E+00    0.255E-01
RMM:   3    -0.178098049612E+03   -0.25373E-02   -0.35885E-02  4385   0.524E-01    0.135E-01
RMM:   4    -0.178098030996E+03    0.18616E-04   -0.23763E-03  4317   0.106E-01    0.110E-01
RMM:   5    -0.178097934358E+03    0.96637E-04   -0.32306E-04  3272   0.728E-02    0.967E-02
RMM:   6    -0.178097772533E+03    0.16182E-03   -0.45202E-04  3421   0.789E-02    0.365E-02
RMM:   7    -0.178097764840E+03    0.76931E-05   -0.14705E-04  3316   0.467E-02    0.181E-02
RMM:   8    -0.178097767840E+03   -0.29996E-05   -0.72835E-05  4180   0.222E-02    0.133E-02
RMM:   9    -0.178097766251E+03    0.15888E-05   -0.43484E-06  2268   0.588E-03    0.974E-03
RMM:  10    -0.178097764948E+03    0.13031E-05   -0.25125E-06  2041   0.453E-03    0.617E-03
RMM:  11    -0.178097765185E+03   -0.23641E-06   -0.52603E-06  2471   0.622E-03
  53 F= -.17809777E+03 E0= -.17807878E+03  d E =-.569446E-01
 Finite differences progress:
  Degree of freedom:  26/153
  Displacement:        2/  2
  Total:              52/306
 bond charge predicted
       N       E                     dE             d eps       ncg     rms          rms(c)
DAV:   1    -0.178093456764E+03    0.43082E-02   -0.25669E+00  3268   0.290E+00    0.126E-01
RMM:   2    -0.178095954436E+03   -0.24977E-02   -0.26937E-02  3250   0.730E-01    0.121E-01
RMM:   3    -0.178097070617E+03   -0.11162E-02   -0.13244E-02  4530   0.308E-01    0.101E-01
RMM:   4    -0.178096956620E+03    0.11400E-03   -0.48184E-04  3884   0.543E-02    0.684E-02
RMM:   5    -0.178096915413E+03    0.41207E-04   -0.18850E-04  3281   0.569E-02    0.594E-02
RMM:   6    -0.178096870179E+03    0.45233E-04   -0.16363E-04  3301   0.525E-02    0.254E-02
RMM:   7    -0.178096864790E+03    0.53894E-05   -0.62612E-05  3335   0.300E-02    0.700E-03
RMM:   8    -0.178096867735E+03   -0.29447E-05   -0.32758E-05  3935   0.133E-02    0.606E-03
RMM:   9    -0.178096867430E+03    0.30510E-06   -0.11237E-06  1917   0.399E-03
  54 F= -.17809687E+03 E0= -.17807791E+03  d E =-.568741E-01
 Finite differences progress:
  Degree of freedom:  27/153
  Displacement:        1/  2
  Total:              53/306
 bond charge predicted
       N       E                     dE             d eps       ncg     rms          rms(c)
DAV:   1    -0.178091630476E+03    0.52373E-02   -0.51395E+00  3296   0.412E+00    0.174E-01
RMM:   2    -0.178096750251E+03   -0.51198E-02   -0.55446E-02  3262   0.988E-01    0.157E-01
RMM:   3    -0.178099400821E+03   -0.26506E-02   -0.29653E-02  4505   0.447E-01    0.143E-01
RMM:   4    -0.178099213789E+03    0.18703E-03   -0.11905E-03  3840   0.825E-02    0.999E-02
RMM:   5    -0.178099125546E+03    0.88244E-04   -0.32635E-04  3297   0.728E-02    0.861E-02
RMM:   6    -0.178099025244E+03    0.10030E-03   -0.43835E-04  3450   0.769E-02    0.398E-02
RMM:   7    -0.178099011740E+03    0.13503E-04   -0.16120E-04  3295   0.507E-02    0.144E-02
RMM:   8    -0.178099015647E+03   -0.39071E-05   -0.75235E-05  4234   0.226E-02    0.959E-03
RMM:   9    -0.178099014691E+03    0.95666E-06   -0.38150E-06  2221   0.509E-03
  55 F= -.17809901E+03 E0= -.17808001E+03  d E =-.570252E-01
 Finite differences progress:
  Degree of freedom:  27/153
  Displacement:        2/  2
  Total:              54/306
 bond charge predicted
       N       E                     dE             d eps       ncg     rms          rms(c)
DAV:   1    -0.178093796052E+03    0.52196E-02   -0.25515E+00  3356   0.296E+00    0.124E-01
RMM:   2    -0.178096688007E+03   -0.28920E-02   -0.30636E-02  3249   0.772E-01    0.158E-01
RMM:   3    -0.178097958648E+03   -0.12706E-02   -0.16823E-02  4517   0.358E-01    0.864E-02
RMM:   4    -0.178097924832E+03    0.33816E-04   -0.77734E-04  4494   0.629E-02    0.748E-02
RMM:   5    -0.178097879902E+03    0.44931E-04   -0.77182E-05  3282   0.345E-02    0.648E-02
RMM:   6    -0.178097805767E+03    0.74135E-04   -0.23480E-04  3746   0.493E-02    0.297E-02
RMM:   7    -0.178097799485E+03    0.62815E-05   -0.84693E-05  3268   0.374E-02    0.159E-02
RMM:   8    -0.178097800159E+03   -0.67336E-06   -0.34894E-05  3949   0.168E-02    0.113E-02
RMM:   9    -0.178097799227E+03    0.93178E-06   -0.29515E-06  2247   0.525E-03
  56 F= -.17809780E+03 E0= -.17807882E+03  d E =-.569428E-01
 Finite differences progress:
  Degree of freedom:  28/153
  Displacement:        1/  2
  Total:              55/306
 bond charge predicted
       N       E                     dE             d eps       ncg     rms          rms(c)
DAV:   1    -0.178089129262E+03    0.86709E-02   -0.51425E+00  3276   0.408E+00    0.144E-01
RMM:   2    -0.178094971276E+03   -0.58420E-02   -0.61674E-02  3266   0.103E+00    0.174E-01
RMM:   3    -0.178098016654E+03   -0.30454E-02   -0.36006E-02  4508   0.496E-01    0.108E-01
RMM:   4    -0.178098010594E+03    0.60598E-05   -0.14368E-03  3658   0.831E-02    0.968E-02
RMM:   5    -0.178097908004E+03    0.10259E-03   -0.21000E-04  3267   0.615E-02    0.778E-02
RMM:   6    -0.178097781593E+03    0.12641E-03   -0.49187E-04  3793   0.665E-02    0.383E-02
RMM:   7    -0.178097776186E+03    0.54070E-05   -0.11796E-04  3284   0.442E-02    0.275E-02
RMM:   8    -0.178097769504E+03    0.66819E-05   -0.36389E-05  3587   0.202E-02    0.161E-02
RMM:   9    -0.178097767093E+03    0.24118E-05   -0.97274E-06  3008   0.800E-03    0.107E-02
RMM:  10    -0.178097766282E+03    0.81091E-06   -0.13995E-05  3105   0.799E-03    0.521E-03
RMM:  11    -0.178097766062E+03    0.21991E-06   -0.99628E-07  1891   0.417E-03
  57 F= -.17809777E+03 E0= -.17807878E+03  d E =-.569607E-01
 Finite differences progress:
  Degree of freedom:  28/153
  Displacement:        2/  2
  Total:              56/306
 bond charge predicted
       N       E                     dE             d eps       ncg     rms          rms(c)
DAV:   1    -0.178093423876E+03    0.43424E-02   -0.25625E+00  3260   0.287E+00    0.103E-01
RMM:   2    -0.178096244886E+03   -0.28210E-02   -0.29889E-02  3259   0.742E-01    0.124E-01
RMM:   3    -0.178097607241E+03   -0.13624E-02   -0.16402E-02  4541   0.336E-01    0.759E-02
RMM:   4    -0.178097588657E+03    0.18585E-04   -0.53275E-04  3591   0.514E-02    0.681E-02
RMM:   5    -0.178097537559E+03    0.51098E-04   -0.10785E-04  3260   0.452E-02    0.557E-02
RMM:   6    -0.178097475188E+03    0.62371E-04   -0.22357E-04  3715   0.466E-02    0.267E-02
RMM:   7    -0.178097471639E+03    0.35489E-05   -0.58762E-05  3286   0.312E-02    0.179E-02
RMM:   8    -0.178097469467E+03    0.21723E-05   -0.19644E-05  3666   0.140E-02    0.107E-02
RMM:   9    -0.178097468732E+03    0.73531E-06   -0.35635E-06  2333   0.491E-03
  58 F= -.17809747E+03 E0= -.17807858E+03  d E =-.566671E-01
 Finite differences progress:
  Degree of freedom:  29/153
  Displacement:        1/  2
  Total:              57/306
 bond charge predicted
       N       E                     dE             d eps       ncg     rms          rms(c)
DAV:   1    -0.178089245578E+03    0.82239E-02   -0.51459E+00  3252   0.406E+00    0.136E-01
RMM:   2    -0.178095031973E+03   -0.57864E-02   -0.60654E-02  3264   0.101E+00    0.150E-01
RMM:   3    -0.178098226472E+03   -0.31945E-02   -0.36054E-02  4517   0.487E-01    0.111E-01
RMM:   4    -0.178098194845E+03    0.31627E-04   -0.12488E-03  3818   0.792E-02    0.982E-02
RMM:   5    -0.178098087557E+03    0.10729E-03   -0.19304E-04  3264   0.569E-02    0.777E-02
RMM:   6    -0.178097971164E+03    0.11639E-03   -0.56630E-04  3982   0.673E-02    0.439E-02
RMM:   7    -0.178097962769E+03    0.83945E-05   -0.10677E-04  3296   0.422E-02    0.334E-02
RMM:   8    -0.178097950142E+03    0.12627E-04   -0.30181E-05  3443   0.195E-02    0.203E-02
RMM:   9    -0.178097946127E+03    0.40153E-05   -0.11392E-05  3113   0.916E-03    0.136E-02
RMM:  10    -0.178097944471E+03    0.16566E-05   -0.22147E-05  3392   0.941E-03    0.536E-03
RMM:  11    -0.178097944140E+03    0.33089E-06   -0.15429E-06  1936   0.494E-03
  59 F= -.17809794E+03 E0= -.17807886E+03  d E =-.572532E-01
 Finite differences progress:
  Degree of freedom:  29/153
  Displacement:        2/  2
  Total:              58/306
 bond charge predicted
       N       E                     dE             d eps       ncg     rms          rms(c)
DAV:   1    -0.178094678494E+03    0.32660E-02   -0.25712E+00  3268   0.285E+00    0.926E-02
RMM:   2    -0.178097329807E+03   -0.26513E-02   -0.27825E-02  3264   0.720E-01    0.913E-02
RMM:   3    -0.178098647854E+03   -0.13180E-02   -0.14700E-02  4534   0.310E-01    0.805E-02
RMM:   4    -0.178098608830E+03    0.39024E-04   -0.45136E-04  3876   0.488E-02    0.680E-02
RMM:   5    -0.178098557033E+03    0.51797E-04   -0.95640E-05  3265   0.408E-02    0.551E-02
RMM:   6    -0.178098500989E+03    0.56044E-04   -0.24543E-04  3849   0.464E-02    0.292E-02
RMM:   7    -0.178098494601E+03    0.63879E-05   -0.57080E-05  3262   0.311E-02    0.174E-02
RMM:   8    -0.178098491679E+03    0.29218E-05   -0.17407E-05  3658   0.129E-02    0.102E-02
RMM:   9    -0.178098490667E+03    0.10122E-05   -0.34134E-06  2410   0.480E-03    0.717E-03
RMM:  10    -0.178098490353E+03    0.31354E-06   -0.51959E-06  2476   0.541E-03
  60 F= -.17809849E+03 E0= -.17807954E+03  d E =-.568542E-01
 Finite differences progress:
  Degree of freedom:  30/153
  Displacement:        1/  2
  Total:              59/306
 bond charge predicted
       N       E                     dE             d eps       ncg     rms          rms(c)
DAV:   1    -0.178089970567E+03    0.85201E-02   -0.51836E+00  3260   0.406E+00    0.199E-01
RMM:   2    -0.178095830941E+03   -0.58604E-02   -0.64055E-02  3260   0.107E+00    0.267E-01
RMM:   3    -0.178097649009E+03   -0.18181E-02   -0.31529E-02  4219   0.513E-01    0.112E-01
RMM:   4    -0.178097819845E+03   -0.17084E-03   -0.32771E-03  3945   0.123E-01    0.104E-01
RMM:   5    -0.178097723796E+03    0.96050E-04   -0.29581E-04  3279   0.690E-02    0.897E-02
RMM:   6    -0.178097574322E+03    0.14947E-03   -0.49868E-04  3513   0.772E-02    0.442E-02
RMM:   7    -0.178097569211E+03    0.51114E-05   -0.16391E-04  3338   0.486E-02    0.276E-02
RMM:   8    -0.178097569082E+03    0.12876E-06   -0.71724E-05  4024   0.229E-02    0.198E-02
RMM:   9    -0.178097567014E+03    0.20675E-05   -0.51580E-06  2407   0.525E-03    0.166E-02
RMM:  10    -0.178097563245E+03    0.37692E-05   -0.40816E-06  2338   0.537E-03    0.887E-03
RMM:  11    -0.178097562933E+03    0.31275E-06   -0.57832E-06  2594   0.614E-03
  61 F= -.17809756E+03 E0= -.17807855E+03  d E =-.570504E-01
 Finite differences progress:
  Degree of freedom:  30/153
  Displacement:        2/  2
  Total:              60/306
 bond charge predicted
       N       E                     dE             d eps       ncg     rms          rms(c)
DAV:   1    -0.178093556620E+03    0.40066E-02   -0.25603E+00  3332   0.292E+00    0.103E-01
RMM:   2    -0.178096354092E+03   -0.27975E-02   -0.29577E-02  3259   0.748E-01    0.116E-01
RMM:   3    -0.178097781130E+03   -0.14270E-02   -0.16664E-02  4559   0.344E-01    0.825E-02
RMM:   4    -0.178097743306E+03    0.37824E-04   -0.52110E-04  3742   0.532E-02    0.716E-02
RMM:   5    -0.178097689305E+03    0.54001E-04   -0.11088E-04  3273   0.446E-02    0.584E-02
RMM:   6    -0.178097622410E+03    0.66895E-04   -0.25866E-04  3830   0.476E-02    0.268E-02
RMM:   7    -0.178097619074E+03    0.33359E-05   -0.65737E-05  3269   0.330E-02    0.182E-02
RMM:   8    -0.178097616018E+03    0.30556E-05   -0.19529E-05  3519   0.155E-02    0.100E-02
RMM:   9    -0.178097615212E+03    0.80642E-06   -0.55025E-06  2706   0.583E-03
  62 F= -.17809762E+03 E0= -.17807859E+03  d E =-.570747E-01
 Finite differences progress:
  Degree of freedom:  31/153
  Displacement:        1/  2
  Total:              61/306
 bond charge predicted
       N       E                     dE             d eps       ncg     rms          rms(c)
DAV:   1    -0.178089216185E+03    0.83998E-02   -0.51332E+00  3256   0.410E+00    0.147E-01
[...]
RMM:   7    -0.178097405067E+03    0.22472E-05   -0.76620E-05  3433   0.322E-02    0.157E-02
RMM:   8    -0.178097403531E+03    0.15355E-05   -0.24368E-05  3637   0.156E-02    0.103E-02
RMM:   9    -0.178097401717E+03    0.18140E-05   -0.76136E-06  2963   0.813E-03    0.506E-03
RMM:  10    -0.178097402217E+03   -0.49976E-06   -0.51300E-06  2394   0.598E-03
 290 F= -.17809740E+03 E0= -.17807842E+03  d E =-.569517E-01
 Finite differences progress:
  Degree of freedom: 145/153
  Displacement:        1/  2
  Total:             289/306
 bond charge predicted
       N       E                     dE             d eps       ncg     rms          rms(c)
DAV:   1    -0.178088744775E+03    0.86569E-02   -0.36152E+00  3240   0.265E+00    0.260E-01
RMM:   2    -0.178096045007E+03   -0.73002E-02   -0.80736E-02  3566   0.632E-01    0.151E-01
RMM:   3    -0.178097958351E+03   -0.19133E-02   -0.23946E-02  3466   0.360E-01    0.195E-01
RMM:   4    -0.178097666243E+03    0.29211E-03   -0.32247E-03  3356   0.187E-01    0.730E-02
RMM:   5    -0.178097781370E+03   -0.11513E-03   -0.12540E-03  3846   0.926E-02    0.679E-02
RMM:   6    -0.178097743283E+03    0.38087E-04   -0.29138E-04  3292   0.687E-02    0.247E-02
RMM:   7    -0.178097751399E+03   -0.81156E-05   -0.11554E-04  3878   0.304E-02    0.110E-02
RMM:   8    -0.178097752235E+03   -0.83569E-06   -0.21527E-05  3654   0.116E-02    0.816E-03
RMM:   9    -0.178097752467E+03   -0.23269E-06   -0.53669E-06  2474   0.783E-03
 291 F= -.17809775E+03 E0= -.17807877E+03  d E =-.569601E-01
 Finite differences progress:
  Degree of freedom: 145/153
  Displacement:        2/  2
  Total:             290/306
 bond charge predicted
       N       E                     dE             d eps       ncg     rms          rms(c)
DAV:   1    -0.178092830536E+03    0.49217E-02   -0.17510E+00  3240   0.186E+00    0.182E-01
RMM:   2    -0.178096125559E+03   -0.32950E-02   -0.37835E-02  3635   0.445E-01    0.102E-01
RMM:   3    -0.178097257717E+03   -0.11322E-02   -0.12951E-02  3526   0.242E-01    0.128E-01
RMM:   4    -0.178097105286E+03    0.15243E-03   -0.15103E-03  3339   0.131E-01    0.488E-02
RMM:   5    -0.178097149196E+03   -0.43910E-04   -0.55404E-04  3958   0.598E-02    0.430E-02
RMM:   6    -0.178097143028E+03    0.61686E-05   -0.10909E-04  3296   0.414E-02    0.244E-02
RMM:   7    -0.178097139057E+03    0.39704E-05   -0.45703E-05  3304   0.285E-02    0.879E-03
RMM:   8    -0.178097141177E+03   -0.21196E-05   -0.21178E-05  3817   0.117E-02    0.631E-03
RMM:   9    -0.178097141319E+03   -0.14239E-06   -0.22176E-06  2004   0.486E-03
 292 F= -.17809714E+03 E0= -.17807824E+03  d E =-.566937E-01
 Finite differences progress:
  Degree of freedom: 146/153
  Displacement:        1/  2
  Total:             291/306
 bond charge predicted
       N       E                     dE             d eps       ncg     rms          rms(c)
DAV:   1    -0.178090592119E+03    0.65491E-02   -0.33963E+00  3240   0.255E+00    0.256E-01
RMM:   2    -0.178097249264E+03   -0.66571E-02   -0.78148E-02  3802   0.598E-01    0.146E-01
RMM:   3    -0.178098992706E+03   -0.17434E-02   -0.22032E-02  3487   0.271E-01    0.129E-01
RMM:   4    -0.178098875675E+03    0.11703E-03   -0.24379E-03  3332   0.169E-01    0.744E-02
RMM:   5    -0.178098873073E+03    0.26021E-05   -0.73787E-04  3440   0.910E-02    0.469E-02
RMM:   6    -0.178098877352E+03   -0.42791E-05   -0.26587E-04  3328   0.598E-02    0.268E-02
RMM:   7    -0.178098877992E+03   -0.64020E-06   -0.11930E-04  3476   0.387E-02    0.123E-02
RMM:   8    -0.178098881729E+03   -0.37365E-05   -0.51953E-05  4066   0.177E-02    0.729E-03
RMM:   9    -0.178098882843E+03   -0.11137E-05   -0.47273E-06  2381   0.677E-03    0.630E-03
RMM:  10    -0.178098883604E+03   -0.76102E-06   -0.24852E-06  1996   0.628E-03
 293 F= -.17809888E+03 E0= -.17807980E+03  d E =-.572482E-01
 Finite differences progress:
  Degree of freedom: 146/153
  Displacement:        2/  2
  Total:             292/306
 bond charge predicted
       N       E                     dE             d eps       ncg     rms          rms(c)
DAV:   1    -0.178089925924E+03    0.89569E-02   -0.17309E+00  3240   0.172E+00    0.238E-01
RMM:   2    -0.178094051413E+03   -0.41255E-02   -0.49176E-02  3506   0.437E-01    0.197E-01
RMM:   3    -0.178094499231E+03   -0.44782E-03   -0.10441E-02  3366   0.276E-01    0.160E-01
RMM:   4    -0.178094265160E+03    0.23407E-03   -0.19913E-03  3320   0.156E-01    0.769E-02
RMM:   5    -0.178094263490E+03    0.16705E-05   -0.91087E-04  3599   0.816E-02    0.497E-02
RMM:   6    -0.178094270905E+03   -0.74153E-05   -0.33209E-04  3298   0.680E-02    0.362E-02
RMM:   7    -0.178094261721E+03    0.91844E-05   -0.11817E-04  3372   0.397E-02    0.956E-03
RMM:   8    -0.178094268032E+03   -0.63108E-05   -0.52937E-05  4236   0.161E-02    0.801E-03
RMM:   9    -0.178094269895E+03   -0.18631E-05   -0.41614E-06  2195   0.651E-03    0.558E-03
RMM:  10    -0.178094271461E+03   -0.15666E-05   -0.24791E-06  1970   0.618E-03    0.444E-03
RMM:  11    -0.178094271859E+03   -0.39743E-06   -0.78103E-07  1887   0.369E-03
 294 F= -.17809427E+03 E0= -.17807524E+03  d E =-.571030E-01
 Finite differences progress:
  Degree of freedom: 147/153
  Displacement:        1/  2
  Total:             293/306
 bond charge predicted
       N       E                     dE             d eps       ncg     rms          rms(c)
DAV:   1    -0.178081337411E+03    0.12934E-01   -0.35340E+00  3240   0.239E+00    0.407E-01
RMM:   2    -0.178090345960E+03   -0.90085E-02   -0.10457E-01  3354   0.668E-01    0.346E-01
RMM:   3    -0.178092187967E+03   -0.18420E-02   -0.38504E-02  3323   0.495E-01    0.279E-01
RMM:   4    -0.178091466908E+03    0.72106E-03   -0.49953E-03  3331   0.242E-01    0.121E-01
RMM:   5    -0.178091514128E+03   -0.47220E-04   -0.22596E-03  3667   0.128E-01    0.922E-02
RMM:   6    -0.178091513618E+03    0.50956E-06   -0.84621E-04  3305   0.110E-01    0.620E-02
RMM:   7    -0.178091479261E+03    0.34357E-04   -0.29180E-04  3328   0.667E-02    0.145E-02
RMM:   8    -0.178091491288E+03   -0.12027E-04   -0.13376E-04  4285   0.261E-02    0.115E-02
RMM:   9    -0.178091491447E+03   -0.15927E-06   -0.93082E-06  3157   0.996E-03
 295 F= -.17809149E+03 E0= -.17807255E+03  d E =-.568207E-01
 Finite differences progress:
  Degree of freedom: 147/153
  Displacement:        2/  2
  Total:             294/306
 bond charge predicted
       N       E                     dE             d eps       ncg     rms          rms(c)
DAV:   1    -0.178095367352E+03   -0.38761E-02   -0.94679E-01  3240   0.122E+00    0.220E-01
RMM:   2    -0.178097946980E+03   -0.25796E-02   -0.29423E-02  3428   0.336E-01    0.173E-01
RMM:   3    -0.178098521145E+03   -0.57417E-03   -0.96964E-03  3332   0.251E-01    0.154E-01
RMM:   4    -0.178098303153E+03    0.21799E-03   -0.12394E-03  3309   0.127E-01    0.643E-02
RMM:   5    -0.178098328371E+03   -0.25218E-04   -0.53036E-04  3568   0.661E-02    0.502E-02
RMM:   6    -0.178098327181E+03    0.11899E-05   -0.23945E-04  3299   0.595E-02    0.307E-02
RMM:   7    -0.178098319811E+03    0.73705E-05   -0.81191E-05  3356   0.337E-02    0.774E-03
RMM:   8    -0.178098323964E+03   -0.41534E-05   -0.37385E-05  4088   0.136E-02    0.698E-03
RMM:   9    -0.178098324538E+03   -0.57431E-06   -0.24845E-06  1989   0.529E-03
 296 F= -.17809832E+03 E0= -.17807934E+03  d E =-.569618E-01
 Finite differences progress:
  Degree of freedom: 148/153
  Displacement:        1/  2
  Total:             295/306
 bond charge predicted
       N       E                     dE             d eps       ncg     rms          rms(c)
DAV:   1    -0.178097404077E+03    0.91989E-03   -0.27779E-01  3248   0.488E-01    0.149E-01
RMM:   2    -0.178097995067E+03   -0.59099E-03   -0.52320E-03  3452   0.139E-01    0.933E-02
RMM:   3    -0.178098462094E+03   -0.46703E-03   -0.29095E-03  3337   0.133E-01    0.109E-01
RMM:   4    -0.178098350218E+03    0.11188E-03   -0.47997E-04  3279   0.918E-02    0.212E-02
RMM:   5    -0.178098369420E+03   -0.19201E-04   -0.13509E-04  3650   0.312E-02    0.211E-02
RMM:   6    -0.178098369041E+03    0.37887E-06   -0.30964E-05  3295   0.224E-02    0.680E-03
RMM:   7    -0.178098372341E+03   -0.33004E-05   -0.13249E-05  3340   0.934E-03    0.469E-03
RMM:   8    -0.178098373679E+03   -0.13378E-05   -0.16775E-06  1914   0.427E-03    0.419E-03
RMM:   9    -0.178098376122E+03   -0.24428E-05   -0.96309E-07  1888   0.391E-03    0.396E-03
RMM:  10    -0.178098379131E+03   -0.30097E-05   -0.63164E-07  1890   0.242E-03    0.376E-03
RMM:  11    -0.178098379745E+03   -0.61367E-06   -0.23129E-07  1855   0.185E-03
 297 F= -.17809838E+03 E0= -.17807939E+03  d E =-.569557E-01
 Finite differences progress:
  Degree of freedom: 148/153
  Displacement:        2/  2
  Total:             296/306
 bond charge predicted
       N       E                     dE             d eps       ncg     rms          rms(c)
DAV:   1    -0.178096890547E+03    0.14886E-02   -0.13860E-01  3256   0.341E-01    0.107E-01
RMM:   2    -0.178097168991E+03   -0.27844E-03   -0.25151E-03  3352   0.995E-02    0.678E-02
RMM:   3    -0.178097419703E+03   -0.25071E-03   -0.16479E-03  3326   0.939E-02    0.800E-02
RMM:   4    -0.178097365788E+03    0.53915E-04   -0.26864E-04  3284   0.676E-02    0.192E-02
RMM:   5    -0.178097372325E+03   -0.65366E-05   -0.71833E-05  3578   0.242E-02    0.145E-02
RMM:   6    -0.178097374484E+03   -0.21597E-05   -0.17031E-05  3255   0.154E-02    0.103E-02
RMM:   7    -0.178097375926E+03   -0.14421E-05   -0.84100E-06  2958   0.101E-02    0.468E-03
RMM:   8    -0.178097376772E+03   -0.84528E-06   -0.34090E-06  2182   0.521E-03
 298 F= -.17809738E+03 E0= -.17807837E+03  d E =-.570302E-01
 Finite differences progress:
  Degree of freedom: 149/153
  Displacement:        1/  2
  Total:             297/306
 bond charge predicted
       N       E                     dE             d eps       ncg     rms          rms(c)
DAV:   1    -0.178097996872E+03   -0.62095E-03   -0.27694E-01  3276   0.477E-01    0.151E-01
RMM:   2    -0.178098576085E+03   -0.57921E-03   -0.54309E-03  3311   0.137E-01    0.975E-02
RMM:   3    -0.178099051243E+03   -0.47516E-03   -0.31457E-03  3316   0.130E-01    0.115E-01
RMM:   4    -0.178098947141E+03    0.10410E-03   -0.55000E-04  3286   0.961E-02    0.283E-02
RMM:   5    -0.178098958065E+03   -0.10923E-04   -0.14187E-04  3482   0.364E-02    0.194E-02
RMM:   6    -0.178098960876E+03   -0.28115E-05   -0.36505E-05  3272   0.224E-02    0.132E-02
RMM:   7    -0.178098963575E+03   -0.26992E-05   -0.19235E-05  3397   0.136E-02    0.517E-03
RMM:   8    -0.178098965319E+03   -0.17435E-05   -0.55975E-06  2441   0.625E-03    0.437E-03
RMM:   9    -0.178098966623E+03   -0.13041E-05   -0.11551E-06  1885   0.412E-03    0.396E-03
RMM:  10    -0.178098967959E+03   -0.13361E-05   -0.58598E-07  1872   0.286E-03    0.377E-03
RMM:  11    -0.178098969157E+03   -0.11981E-05   -0.32150E-07  1861   0.194E-03    0.370E-03
RMM:  12    -0.178098969599E+03   -0.44164E-06   -0.15117E-07  1846   0.141E-03
 299 F= -.17809897E+03 E0= -.17808001E+03  d E =-.568851E-01
 Finite differences progress:
  Degree of freedom: 149/153
  Displacement:        2/  2
  Total:             298/306
 bond charge predicted
       N       E                     dE             d eps       ncg     rms          rms(c)
DAV:   1    -0.178093336621E+03    0.56325E-02   -0.14341E-01  3388   0.356E-01    0.204E-01
RMM:   2    -0.178093382230E+03   -0.45609E-04   -0.52290E-03  3277   0.132E-01    0.157E-01
RMM:   3    -0.178093311267E+03    0.70963E-04   -0.22451E-03  3298   0.149E-01    0.124E-01
RMM:   4    -0.178093192953E+03    0.11831E-03   -0.66616E-04  3278   0.113E-01    0.648E-02
RMM:   5    -0.178093188515E+03    0.44385E-05   -0.21085E-04  3381   0.492E-02    0.230E-02
RMM:   6    -0.178093194035E+03   -0.55207E-05   -0.84938E-05  3296   0.374E-02    0.206E-02
RMM:   7    -0.178093190119E+03    0.39168E-05   -0.28939E-05  3257   0.231E-02    0.736E-03
RMM:   8    -0.178093191645E+03   -0.15261E-05   -0.12485E-05  3117   0.950E-03    0.537E-03
RMM:   9    -0.178093193200E+03   -0.15557E-05   -0.23756E-06  1958   0.511E-03    0.468E-03
RMM:  10    -0.178093193894E+03   -0.69307E-06   -0.11259E-06  1888   0.446E-03
 300 F= -.17809319E+03 E0= -.17807418E+03  d E =-.570472E-01
 Finite differences progress:
  Degree of freedom: 150/153
  Displacement:        1/  2
  Total:             299/306
 bond charge predicted
       N       E                     dE             d eps       ncg     rms          rms(c)
DAV:   1    -0.178095535252E+03   -0.23421E-02   -0.29675E-01  3396   0.528E-01    0.352E-01
RMM:   2    -0.178095451278E+03    0.83975E-04   -0.15329E-02  3350   0.218E-01    0.270E-01
RMM:   3    -0.178095300601E+03    0.15068E-03   -0.72698E-03  3301   0.257E-01    0.219E-01
RMM:   4    -0.178094839517E+03    0.46108E-03   -0.18863E-03  3280   0.189E-01    0.110E-01
RMM:   5    -0.178094808778E+03    0.30739E-04   -0.62354E-04  3396   0.802E-02    0.437E-02
RMM:   6    -0.178094830535E+03   -0.21757E-04   -0.27952E-04  3303   0.675E-02    0.405E-02
RMM:   7    -0.178094811954E+03    0.18581E-04   -0.10225E-04  3277   0.437E-02    0.108E-02
RMM:   8    -0.178094818026E+03   -0.60719E-05   -0.47694E-05  4024   0.161E-02    0.778E-03
RMM:   9    -0.178094821317E+03   -0.32908E-05   -0.63008E-06  2580   0.821E-03    0.565E-03
RMM:  10    -0.178094822695E+03   -0.13785E-05   -0.25953E-06  1978   0.587E-03    0.402E-03
RMM:  11    -0.178094823838E+03   -0.11426E-05   -0.96135E-07  1871   0.367E-03    0.386E-03
RMM:  12    -0.178094824575E+03   -0.73671E-06   -0.46555E-07  1851   0.248E-03
 301 F= -.17809482E+03 E0= -.17807587E+03  d E =-.568717E-01
 Finite differences progress:
  Degree of freedom: 150/153
  Displacement:        2/  2
  Total:             300/306
 bond charge predicted
       N       E                     dE             d eps       ncg     rms          rms(c)
DAV:   1    -0.178098464048E+03   -0.36402E-02   -0.13525E-01  3268   0.418E-01    0.179E-01
RMM:   2    -0.178098629435E+03   -0.16539E-03   -0.57093E-03  3552   0.138E-01    0.138E-01
RMM:   3    -0.178098610052E+03    0.19383E-04   -0.22057E-03  3316   0.134E-01    0.114E-01
RMM:   4    -0.178098496119E+03    0.11393E-03   -0.54013E-04  3282   0.992E-02    0.586E-02
RMM:   5    -0.178098494427E+03    0.16916E-05   -0.20129E-04  3424   0.442E-02    0.248E-02
RMM:   6    -0.178098501161E+03   -0.67345E-05   -0.84803E-05  3296   0.369E-02    0.223E-02
RMM:   7    -0.178098495661E+03    0.55000E-05   -0.32465E-05  3259   0.243E-02    0.670E-03
RMM:   8    -0.178098497313E+03   -0.16518E-05   -0.16623E-05  3446   0.934E-03    0.527E-03
RMM:   9    -0.178098498010E+03   -0.69653E-06   -0.23146E-06  1943   0.483E-03
 302 F= -.17809850E+03 E0= -.17807951E+03  d E =-.569659E-01
 Finite differences progress:
  Degree of freedom: 151/153
  Displacement:        1/  2
  Total:             301/306
 bond charge predicted
       N       E                     dE             d eps       ncg     rms          rms(c)
DAV:   1    -0.178098068138E+03    0.42917E-03   -0.24787E-01  3240   0.557E-01    0.719E-02
RMM:   2    -0.178098300004E+03   -0.23187E-03   -0.26432E-03  3353   0.130E-01    0.448E-02
RMM:   3    -0.178098423640E+03   -0.12364E-03   -0.10554E-03  3340   0.854E-02    0.500E-02
RMM:   4    -0.178098407469E+03    0.16171E-04   -0.22001E-04  3311   0.591E-02    0.998E-03
RMM:   5    -0.178098413843E+03   -0.63742E-05   -0.68148E-05  3736   0.207E-02    0.905E-03
RMM:   6    -0.178098414529E+03   -0.68547E-06   -0.97578E-06  2821   0.114E-02
 303 F= -.17809841E+03 E0= -.17807943E+03  d E =-.569487E-01
 Finite differences progress:
  Degree of freedom: 151/153
  Displacement:        2/  2
  Total:             302/306
 bond charge predicted
       N       E                     dE             d eps       ncg     rms          rms(c)
DAV:   1    -0.178101957305E+03   -0.35435E-02   -0.12186E-01  3240   0.396E-01    0.793E-02
RMM:   2    -0.178102069047E+03   -0.11174E-03   -0.22218E-03  3301   0.115E-01    0.519E-02
RMM:   3    -0.178102119013E+03   -0.49966E-04   -0.85064E-04  3328   0.765E-02    0.402E-02
RMM:   4    -0.178102112682E+03    0.63307E-05   -0.18513E-04  3288   0.519E-02    0.228E-02
RMM:   5    -0.178102114870E+03   -0.21877E-05   -0.79847E-05  3513   0.271E-02    0.108E-02
RMM:   6    -0.178102116017E+03   -0.11472E-05   -0.19355E-05  3272   0.152E-02    0.862E-03
RMM:   7    -0.178102116285E+03   -0.26752E-06   -0.82592E-06  2981   0.106E-02
 304 F= -.17810212E+03 E0= -.17808306E+03  d E =-.571580E-01
 Finite differences progress:
  Degree of freedom: 152/153
  Displacement:        1/  2
  Total:             303/306
 bond charge predicted
       N       E                     dE             d eps       ncg     rms          rms(c)
DAV:   1    -0.178095364015E+03    0.67520E-02   -0.24012E-01  3240   0.557E-01    0.140E-01
RMM:   2    -0.178095546908E+03   -0.18289E-03   -0.59010E-03  3299   0.183E-01    0.923E-02
RMM:   3    -0.178095625347E+03   -0.78440E-04   -0.22301E-03  3319   0.128E-01    0.662E-02
RMM:   4    -0.178095600185E+03    0.25162E-04   -0.50706E-04  3306   0.849E-02    0.378E-02
RMM:   5    -0.178095603066E+03   -0.28812E-05   -0.20248E-04  3495   0.427E-02    0.177E-02
RMM:   6    -0.178095605182E+03   -0.21158E-05   -0.49993E-05  3310   0.245E-02    0.141E-02
RMM:   7    -0.178095606318E+03   -0.11355E-05   -0.22053E-05  3252   0.174E-02    0.837E-03
RMM:   8    -0.178095607749E+03   -0.14309E-05   -0.10769E-05  3184   0.101E-02    0.482E-03
RMM:   9    -0.178095608673E+03   -0.92470E-06   -0.24565E-06  2059   0.466E-03
 305 F= -.17809561E+03 E0= -.17807668E+03  d E =-.567741E-01
 Finite differences progress:
  Degree of freedom: 152/153
  Displacement:        2/  2
  Total:             304/306
 bond charge predicted
       N       E                     dE             d eps       ncg     rms          rms(c)
DAV:   1    -0.178094468785E+03    0.11390E-02   -0.12391E-01  3240   0.436E-01    0.106E-01
RMM:   2    -0.178094522072E+03   -0.53287E-04   -0.27676E-03  3280   0.133E-01    0.647E-02
RMM:   3    -0.178094557612E+03   -0.35540E-04   -0.10942E-03  3305   0.101E-01    0.561E-02
RMM:   4    -0.178094539483E+03    0.18129E-04   -0.29261E-04  3287   0.634E-02    0.251E-02
RMM:   5    -0.178094544938E+03   -0.54553E-05   -0.11808E-04  3519   0.318E-02    0.135E-02
RMM:   6    -0.178094545597E+03   -0.65820E-06   -0.25954E-05  3247   0.186E-02    0.107E-02
RMM:   7    -0.178094545408E+03    0.18840E-06   -0.11879E-05  3139   0.125E-02    0.586E-03
RMM:   8    -0.178094545565E+03   -0.15688E-06   -0.53424E-06  2444   0.699E-03
 306 F= -.17809455E+03 E0= -.17807556E+03  d E =-.569599E-01
 Finite differences progress:
  Degree of freedom: 153/153
  Displacement:        1/  2
  Total:             305/306
 bond charge predicted
       N       E                     dE             d eps       ncg     rms          rms(c)
DAV:   1    -0.178099804691E+03   -0.52593E-02   -0.25838E-01  3248   0.676E-01    0.123E-01
RMM:   2    -0.178100063390E+03   -0.25870E-03   -0.47821E-03  3250   0.183E-01    0.732E-02
RMM:   3    -0.178100225790E+03   -0.16240E-03   -0.21363E-03  3282   0.133E-01    0.829E-02
RMM:   4    -0.178100192879E+03    0.32911E-04   -0.52182E-04  3289   0.801E-02    0.253E-02
RMM:   5    -0.178100203743E+03   -0.10864E-04   -0.16384E-04  3429   0.389E-02    0.159E-02
RMM:   6    -0.178100205386E+03   -0.16429E-05   -0.40041E-05  3271   0.234E-02    0.125E-02
RMM:   7    -0.178100206045E+03   -0.65951E-06   -0.16870E-05  3253   0.131E-02    0.573E-03
RMM:   8    -0.178100206561E+03   -0.51536E-06   -0.57010E-06  2514   0.701E-03
 307 F= -.17810021E+03 E0= -.17808122E+03  d E =-.569628E-01
 Finite differences progress:
  Degree of freedom: 153/153
  Displacement:        2/  2
  Total:             306/306
 Finite differences POTIM=  1.500000000000000E-002
 writing wavefunctions
