  51  51   0   0
  0.3231811E+02  0.1011850E-08  0.1011850E-08  0.1858888E-08  0.1500000E-16
  1.000000000000000E-004
  CAR 
 Bulk Frequency (Finite Difference)      
      7.43876677    -16.74109966  301     -0.41827247      1.00000000
    -16.741  0.0000E+00  0.0000E+00
    -16.661  0.0000E+00  0.0000E+00
    -16.580  0.0000E+00  0.0000E+00
    -16.499 -0.1108E-32 -0.8927E-34
    -16.419 -0.5265E-27 -0.4243E-28
    -16.338 -0.6752E-22 -0.5442E-23
    -16.258 -0.2330E-17 -0.1878E-18
    -16.177 -0.2081E-13 -0.1677E-14
    -16.096 -0.5060E-10 -0.4080E-11
    -16.016 -0.3216E-07 -0.2596E-08
    -15.935 -0.5182E-05 -0.4202E-06
    -15.855 -0.1944E-03 -0.1609E-04
    -15.774 -0.1110E-02 -0.1055E-03
    -15.693  0.5998E-02  0.3779E-03
    -15.613  0.2346E-01  0.2269E-02
    -15.532  0.1133E-01  0.3182E-02
    -15.452 -0.8342E-03  0.3115E-02
    -15.371 -0.3945E-03  0.3083E-02
    -15.290 -0.1627E-04  0.3082E-02
    -15.210 -0.1486E-06  0.3082E-02
    -15.129 -0.3391E-09  0.3082E-02
    -15.049 -0.2011E-12  0.3082E-02
    -14.968 -0.3396E-16  0.3082E-02
    -14.887  0.0000E+00  0.3082E-02
    -14.807  0.0000E+00  0.3082E-02
    -14.726  0.0000E+00  0.3082E-02
    -14.646  0.0000E+00  0.3082E-02
    -14.565  0.0000E+00  0.3082E-02
    -14.484  0.0000E+00  0.3082E-02
    -14.404  0.0000E+00  0.3082E-02
    -14.323  0.0000E+00  0.3082E-02
    -14.243  0.0000E+00  0.3082E-02
    -14.162  0.0000E+00  0.3082E-02
    -14.081  0.0000E+00  0.3082E-02
    -14.001  0.0000E+00  0.3082E-02
    -13.920  0.0000E+00  0.3082E-02
    -13.840  0.0000E+00  0.3082E-02
    -13.759  0.0000E+00  0.3082E-02
    -13.678  0.0000E+00  0.3082E-02
    -13.598  0.0000E+00  0.3082E-02
    -13.517  0.0000E+00  0.3082E-02
    -13.437  0.0000E+00  0.3082E-02
    -13.356  0.0000E+00  0.3082E-02
    -13.275  0.0000E+00  0.3082E-02
    -13.195  0.0000E+00  0.3082E-02
    -13.114  0.0000E+00  0.3082E-02
    -13.034  0.0000E+00  0.3082E-02
    -12.953  0.0000E+00  0.3082E-02
    -12.872  0.0000E+00  0.3082E-02
    -12.792  0.0000E+00  0.3082E-02
    -12.711  0.0000E+00  0.3082E-02
    -12.631  0.0000E+00  0.3082E-02
    -12.550  0.0000E+00  0.3082E-02
    -12.469  0.0000E+00  0.3082E-02
    -12.389  0.0000E+00  0.3082E-02
    -12.308  0.0000E+00  0.3082E-02
    -12.228  0.0000E+00  0.3082E-02
    -12.147  0.0000E+00  0.3082E-02
    -12.066  0.0000E+00  0.3082E-02
    -11.986  0.0000E+00  0.3082E-02
    -11.905  0.0000E+00  0.3082E-02
    -11.825  0.0000E+00  0.3082E-02
    -11.744  0.0000E+00  0.3082E-02
    -11.663  0.0000E+00  0.3082E-02
    -11.583  0.0000E+00  0.3082E-02
    -11.502  0.0000E+00  0.3082E-02
    -11.422  0.0000E+00  0.3082E-02
    -11.341  0.0000E+00  0.3082E-02
    -11.260  0.0000E+00  0.3082E-02
    -11.180  0.0000E+00  0.3082E-02
    -11.099  0.0000E+00  0.3082E-02
    -11.019  0.0000E+00  0.3082E-02
    -10.938  0.0000E+00  0.3082E-02
    -10.857  0.0000E+00  0.3082E-02
    -10.777  0.0000E+00  0.3082E-02
    -10.696  0.0000E+00  0.3082E-02
    -10.616  0.0000E+00  0.3082E-02
    -10.535  0.0000E+00  0.3082E-02
    -10.454  0.0000E+00  0.3082E-02
    -10.374  0.0000E+00  0.3082E-02
    -10.293  0.0000E+00  0.3082E-02
    -10.213  0.0000E+00  0.3082E-02
    -10.132  0.0000E+00  0.3082E-02
    -10.051 -0.2172E-31  0.3082E-02
     -9.971 -0.6244E-26  0.3082E-02
     -9.890 -0.4840E-21  0.3082E-02
     -9.810 -0.9844E-17  0.3082E-02
     -9.729 -0.5399E-13  0.3082E-02
     -9.648 -0.7861E-10  0.3082E-02
     -9.568 -0.2965E-07  0.3082E-02
     -9.487 -0.2775E-05  0.3081E-02
     -9.407 -0.5593E-04  0.3077E-02
     -9.326 -0.5291E-04  0.3073E-02
     -9.245  0.1477E-02  0.3192E-02
     -9.165  0.1975E-02  0.3351E-02
     -9.084  0.1248E-02  0.3451E-02
     -9.004  0.1239E-01  0.4450E-02
     -8.923  0.1253E-01  0.5461E-02
     -8.842  0.7844E-03  0.5524E-02
     -8.762 -0.8109E-03  0.5458E-02
     -8.681 -0.4133E-03  0.5425E-02
     -8.601  0.7513E-02  0.6031E-02
     -8.520  0.1454E-01  0.7202E-02
     -8.439  0.5534E-02  0.7648E-02
     -8.359  0.1268E-01  0.8670E-02
     -8.278  0.1150E-01  0.9597E-02
     -8.198  0.3938E-03  0.9628E-02
     -8.117 -0.4888E-03  0.9589E-02
     -8.036 -0.3383E-03  0.9562E-02
     -7.956 -0.6601E-03  0.9509E-02
     -7.875  0.7873E-02  0.1014E-01
     -7.795  0.2010E-01  0.1176E-01
     -7.714  0.1936E-01  0.1332E-01
     -7.633  0.1114E-01  0.1422E-01
     -7.553  0.7834E-02  0.1485E-01
     -7.472  0.1539E-01  0.1609E-01
     -7.392  0.1228E-01  0.1708E-01
     -7.311  0.1361E-01  0.1818E-01
     -7.230  0.8143E-02  0.1884E-01
     -7.150  0.3064E-03  0.1886E-01
     -7.069 -0.6529E-03  0.1881E-01
     -6.989 -0.7200E-03  0.1875E-01
     -6.908  0.8306E-02  0.1942E-01
     -6.827  0.2100E-01  0.2111E-01
     -6.747  0.1826E-01  0.2258E-01
     -6.666  0.2160E-01  0.2433E-01
     -6.586  0.4000E-01  0.2755E-01
     -6.505  0.1653E-01  0.2888E-01
     -6.424 -0.1302E-02  0.2878E-01
     -6.344  0.1011E-01  0.2959E-01
     -6.263  0.2143E-01  0.3132E-01
     -6.183  0.2139E-01  0.3304E-01
     -6.102  0.6651E-02  0.3358E-01
     -6.021  0.1958E-02  0.3374E-01
     -5.941  0.1347E-01  0.3482E-01
     -5.860  0.9835E-02  0.3562E-01
     -5.780  0.2802E-01  0.3787E-01
     -5.699  0.6113E-01  0.4280E-01
     -5.618  0.5082E-01  0.4690E-01
     -5.538  0.2807E-01  0.4916E-01
     -5.457  0.2568E-01  0.5123E-01
     -5.377  0.1678E-01  0.5258E-01
     -5.296  0.5211E-01  0.5678E-01
     -5.215  0.8278E-01  0.6345E-01
     -5.135  0.6951E-01  0.6906E-01
     -5.054  0.1011E+00  0.7721E-01
     -4.974  0.1010E+00  0.8535E-01
     -4.893  0.8111E-01  0.9189E-01
     -4.812  0.7772E-01  0.9815E-01
     -4.732  0.8394E-01  0.1049E+00
     -4.651  0.1313E+00  0.1155E+00
     -4.571  0.1631E+00  0.1286E+00
     -4.490  0.1490E+00  0.1407E+00
     -4.409  0.1322E+00  0.1513E+00
     -4.329  0.1525E+00  0.1636E+00
     -4.248  0.1248E+00  0.1737E+00
     -4.168  0.1147E+00  0.1829E+00
     -4.087  0.1248E+00  0.1930E+00
     -4.006  0.1044E+00  0.2014E+00
     -3.926  0.2099E+00  0.2183E+00
     -3.845  0.2464E+00  0.2382E+00
     -3.765  0.1517E+00  0.2504E+00
     -3.684  0.1305E+00  0.2609E+00
     -3.603  0.2018E+00  0.2772E+00
     -3.523  0.2697E+00  0.2989E+00
     -3.442  0.2250E+00  0.3170E+00
     -3.362  0.2481E+00  0.3370E+00
     -3.281  0.3252E+00  0.3633E+00
     -3.200  0.3488E+00  0.3914E+00
     -3.120  0.3586E+00  0.4203E+00
     -3.039  0.3369E+00  0.4474E+00
     -2.959  0.2322E+00  0.4661E+00
     -2.878  0.1710E+00  0.4799E+00
     -2.797  0.1925E+00  0.4954E+00
     -2.717  0.2354E+00  0.5144E+00
     -2.636  0.3103E+00  0.5394E+00
     -2.556  0.3690E+00  0.5692E+00
     -2.475  0.3097E+00  0.5941E+00
     -2.394  0.2469E+00  0.6140E+00
     -2.314  0.2511E+00  0.6343E+00
     -2.233  0.2795E+00  0.6568E+00
     -2.153  0.3606E+00  0.6859E+00
     -2.072  0.4548E+00  0.7225E+00
     -1.991  0.4167E+00  0.7561E+00
     -1.911  0.1970E+00  0.7720E+00
     -1.830  0.9653E-01  0.7798E+00
     -1.750  0.5954E-01  0.7846E+00
     -1.669  0.4736E-01  0.7884E+00
     -1.588  0.4232E-01  0.7918E+00
     -1.508  0.4814E-01  0.7957E+00
     -1.427  0.4354E-01  0.7992E+00
     -1.347  0.2861E-01  0.8015E+00
     -1.266  0.2578E-01  0.8036E+00
     -1.185  0.1677E-01  0.8049E+00
     -1.105  0.1498E-01  0.8061E+00
     -1.024  0.1926E-01  0.8077E+00
     -0.944  0.1736E-01  0.8091E+00
     -0.863  0.2484E-01  0.8111E+00
     -0.782  0.3650E-01  0.8140E+00
     -0.702  0.2101E-01  0.8157E+00
     -0.621  0.1339E-01  0.8168E+00
     -0.541  0.2185E-01  0.8185E+00
     -0.460  0.3367E-01  0.8213E+00
     -0.379  0.7986E-01  0.8277E+00
     -0.299  0.5240E-01  0.8319E+00
     -0.218  0.1818E-01  0.8334E+00
     -0.138  0.2685E-01  0.8355E+00
     -0.057  0.2676E-01  0.8377E+00
      0.024  0.9755E-02  0.8385E+00
      0.104  0.1201E-01  0.8395E+00
      0.185  0.1475E-01  0.8406E+00
      0.265  0.5173E-02  0.8411E+00
      0.346  0.1282E-01  0.8421E+00
      0.427  0.1367E-01  0.8432E+00
      0.507  0.6956E-02  0.8438E+00
      0.588  0.2129E-01  0.8455E+00
      0.668  0.3548E-01  0.8483E+00
      0.749  0.5131E-01  0.8525E+00
      0.830  0.3991E-01  0.8557E+00
      0.910  0.1597E-01  0.8570E+00
      0.991  0.3575E-01  0.8599E+00
      1.071  0.3960E-01  0.8630E+00
      1.152  0.1341E-01  0.8641E+00
      1.233  0.1769E-01  0.8656E+00
      1.313  0.3087E-01  0.8680E+00
      1.394  0.1853E-01  0.8695E+00
      1.474  0.2002E-01  0.8711E+00
      1.555  0.1751E-01  0.8726E+00
      1.636  0.1534E-01  0.8738E+00
      1.716  0.2266E-01  0.8756E+00
      1.797  0.4351E-01  0.8791E+00
      1.877  0.3038E-01  0.8816E+00
      1.958  0.2338E-01  0.8835E+00
      2.039  0.3946E-01  0.8866E+00
      2.119  0.2847E-01  0.8889E+00
      2.200  0.9467E-02  0.8897E+00
      2.280  0.4565E-02  0.8901E+00
      2.361  0.4710E-02  0.8904E+00
      2.442  0.1323E-01  0.8915E+00
      2.522  0.1984E-01  0.8931E+00
      2.603  0.3124E-01  0.8956E+00
      2.683  0.2738E-01  0.8978E+00
      2.764  0.1863E-01  0.8993E+00
      2.845  0.1498E-01  0.9005E+00
      2.925  0.1565E-01  0.9018E+00
      3.006  0.1145E-01  0.9027E+00
      3.086  0.9870E-02  0.9035E+00
      3.167  0.1788E-01  0.9050E+00
      3.248  0.2278E-01  0.9068E+00
      3.328  0.1805E-01  0.9083E+00
      3.409  0.1711E-01  0.9096E+00
      3.489  0.8196E-02  0.9103E+00
      3.570  0.9808E-02  0.9111E+00
      3.651  0.2122E-01  0.9128E+00
      3.731  0.3879E-01  0.9159E+00
      3.812  0.3547E-01  0.9188E+00
      3.892  0.2686E-01  0.9209E+00
      3.973  0.1154E-01  0.9219E+00
      4.054  0.9020E-02  0.9226E+00
      4.134  0.1457E-01  0.9238E+00
      4.215  0.5252E-02  0.9242E+00
      4.295  0.1758E-01  0.9256E+00
      4.376  0.2859E-01  0.9279E+00
      4.457  0.2145E-01  0.9297E+00
      4.537  0.4017E-01  0.9329E+00
      4.618  0.4706E-01  0.9367E+00
      4.698  0.3765E-01  0.9397E+00
      4.779  0.2670E-01  0.9419E+00
      4.860  0.1481E-01  0.9431E+00
      4.940  0.2205E-01  0.9448E+00
      5.021  0.3844E-01  0.9479E+00
      5.101  0.5946E-01  0.9527E+00
      5.182  0.6536E-01  0.9580E+00
      5.263  0.4396E-01  0.9615E+00
      5.343  0.3079E-01  0.9640E+00
      5.424  0.3345E-01  0.9667E+00
      5.504  0.3115E-01  0.9692E+00
      5.585  0.4893E-01  0.9732E+00
      5.666  0.4045E-01  0.9764E+00
      5.746  0.2291E-01  0.9783E+00
      5.827  0.3800E-01  0.9813E+00
      5.907  0.6276E-01  0.9864E+00
      5.988  0.6346E-01  0.9915E+00
      6.069  0.2410E-01  0.9935E+00
      6.149  0.8672E-02  0.9942E+00
      6.230  0.2284E-01  0.9960E+00
      6.310  0.2193E-01  0.9978E+00
      6.391  0.8837E-02  0.9985E+00
      6.472  0.1541E-03  0.9985E+00
      6.552 -0.3949E-03  0.9985E+00
      6.633 -0.3652E-04  0.9985E+00
      6.713 -0.7703E-06  0.9985E+00
      6.794 -0.4241E-08  0.9985E+00
      6.875 -0.6243E-11  0.9985E+00
      6.955 -0.2471E-14  0.9985E+00
      7.036  0.0000E+00  0.9985E+00
      7.116  0.0000E+00  0.9985E+00
      7.197  0.0000E+00  0.9985E+00
      7.278  0.0000E+00  0.9985E+00
      7.358  0.0000E+00  0.9985E+00
      7.439  0.0000E+00  0.9985E+00
