  51   51
1 1
     9.001130858349590    -0.551761344844411     0.392860851674522
    -0.551761344844411     7.430210730819329    -0.097113575131180
     0.392860851674522    -0.097113575131180     3.993659929247453
1 2
    -0.510384217609751     0.933013558045270     0.088422049987960
     1.034584011481217    -1.613093248558848    -0.212515298913746
    -0.609198042473775     0.064658337557344    -0.078472213366521
1 3
    -0.036182793344628     0.069199591069063    -0.017173938825496
     0.091003604750604    -0.108642211733014    -0.005916222794331
     0.021420605835337     0.014691356120804     0.025964079815663
1 4
    -0.434035640657510     0.894087055927903    -0.059051656926979
     0.780565510037446    -1.401487772356017     0.119590500003748
     0.116939871506923    -0.168194514128503    -0.067264340875378
1 5
    -2.688493994560196     0.020721020420152    -0.417728997628969
    -0.045085135601493     0.005625861422996    -0.032303333080423
    -0.046459096052933    -0.051029683670993     0.063035078803300
1 6
    -0.433995266610067    -0.799423268688149    -0.120154803239101
    -0.805029460503411    -1.345386912800221    -0.154838291459496
     0.064972037249765     0.137102990089507    -0.101020073630789
1 7
    -0.025841244220395     0.022007740376112     0.006126366487169
     0.050289149590612    -0.086616564603635    -0.002179618743973
     0.006013608803279     0.024293229191167    -0.008464205319689
1 8
    -0.073183909973100     0.045138390446915    -0.008041135848055
     0.062783297423977    -0.035138382675331    -0.010605179069643
    -0.023117790073466     0.005525563324072     0.006099341252166
1 9
    -0.027478821616844     0.011081316180915     0.002038761991903
     0.027438546372454     0.006319625258311     0.006348213141594
     0.051674688199785    -0.007740199949998     0.005491361867345
1 10
    -0.067102686080708    -0.048582399656930     0.011455163531727
     0.000339097277134    -0.027271301405064    -0.014017329495313
    -0.026435216972451     0.006681499239180    -0.025094079935160
1 11
    -0.033250435743181    -0.039490579145730     0.009787050791823
    -0.038169236520029    -0.083197474563551     0.006229150262893
     0.014916039462876    -0.001159984240189     0.015886327041981
1 12
    -0.082258559553767    -0.017274104320322    -0.007861085485015
    -0.010310160954428    -0.035068102503875    -0.014152008456507
    -0.036250899848924     0.010702071063328     0.008398436287614
1 13
    -2.480209083553314     0.025005201389067     0.102384288981134
    -0.009440967098829     0.069479669122673     0.010091332993271
    -0.098325849586986     0.018820816709303    -0.090767819065502
1 14
    -0.098707250171172     0.033593128931418     0.008029362684298
     0.051536093517606    -0.048729504402045     0.004792520075137
     0.010157063024141    -0.031434485035508    -0.006545143226170
1 15
    -0.032319047965968     0.008473386203352     0.005333227581449
    -0.009726123109333    -0.071001384339312     0.002272095801249
     0.009826015595724     0.025002252897967    -0.003139558003345
1 16
    -0.490543602591602    -0.872732746940949     0.063646737301794
    -0.860184683841758    -1.469167782874396     0.153775662027292
    -0.069925312491776    -0.098223819834560    -0.087478967049399
1 17
     0.004686441997628     0.006484010137332     0.008337454003437
    -0.010543991379118    -0.005113289385989     0.012763854166517
     0.029365062896294     0.013949753407405    -0.037736775558225
1 18
     0.012773916477414    -0.026444031244787    -0.003383715947126
    -0.035037814168052     0.041823038412037     0.034146600232096
     0.007257864247207     0.018860753943249     0.033573883136779
1 19
     0.012820242108743    -0.024924312889844     0.005822734305804
    -0.022316169705694     0.028142788531519    -0.005288735006756
     0.029891662366709    -0.019463525367159     0.025927683891133
1 20
    -0.003319579765502    -0.004657042889280    -0.008251939961298
     0.008423781870720     0.006847191958610     0.008580051899016
    -0.030874856744597    -0.008172689512686    -0.017335502617354
1 21
    -0.010593587911509    -0.019398177548098    -0.014118836631593
    -0.002358488670541     0.005887234498675     0.002193009157699
     0.010608062558734     0.006128789762041     0.047618167664925
1 22
     0.000492086004047     0.040530148465443     0.020304698156987
     0.038067718983428     0.019732766285931     0.021115574810752
    -0.011794442814484    -0.006825426686125     0.027135018194303
1 23
    -0.095406422185046     0.017310518445414     0.002784665238176
     0.008339612070115    -0.108583707325395     0.018320496250834
    -0.011689864983329    -0.003384373767451    -0.057887496957772
1 24
     0.050694964929143     0.010674749419167     0.012066931233596
     0.021612775172819    -0.005597530947666     0.014400986949229
     0.012134938934839    -0.021361324003698     0.034249045997376
1 25
    -0.042385958404652     0.027822791444526     0.004682856486846
     0.015161117835095    -0.025168078221495     0.035341979365885
     0.005043654034456     0.029457862363532    -0.023396089672126
1 26
    -0.012152658482322    -0.004307126677872     0.031447618041280
     0.003032335890489    -0.019794744400878    -0.007459778685784
     0.011959937927809    -0.013961146959434    -0.016103698958151
1 27
    -0.006174935987827     0.029067101490140     0.011751645492170
     0.022853816917452     0.030710661671440    -0.013128772841459
    -0.014102859137934    -0.008822028375396     0.037072117022181
1 28
     0.057247107571575    -0.007128286643630    -0.006180409156932
     0.005123731308615    -0.009437966606122     0.005797695532178
    -0.004988950944288     0.000879575976377     0.036639981070418
1 29
    -0.017292239880659     0.019646651625235     0.008271851376503
     0.010921296836776    -0.020124741396839     0.013105106910249
    -0.003941973995700    -0.006583109599222     0.051327751680440
1 30
    -0.020364229596338     0.005971885314143    -0.007295934623472
     0.021477838803671    -0.018564857000881    -0.009614402857497
    -0.017724414833627     0.001490893864348    -0.018554628284843
1 31
     0.041705140369326     0.013986843553385     0.000303275970358
     0.007706578311186    -0.045421273987206     0.001792833393414
     0.034667339121435     0.019954100724531     0.031004130138775
1 32
    -0.031502620140687     0.012591583243839     0.022646520312581
     0.009213548472245     0.004060527258656     0.018816739783337
    -0.019619834396660     0.007016875801354    -0.037091628025015
1 33
    -0.386867180287252    -0.241646728991455     0.847659602852647
    -0.228826177473152    -0.051177352633541     0.468567705399354
     0.709751016872536     0.387422495044886    -1.249969182865798
1 34
    -0.049313394042562     0.000495377705752     0.018507278221862
     0.019008880519936    -0.107238545363745     0.118134088404803
     0.006603356424791    -0.033187011983569    -0.002386865947318
1 35
    -0.011778998337294     0.045519814431823    -0.026128836506172
     0.061570302745917    -0.034494090568551    -0.027072093650115
    -0.013471003215396    -0.014136501577389    -0.012158628266771
1 36
    -0.069004426439036     0.039872117534173     0.085516192405287
     0.035118255453458    -0.081980148151653    -0.034974811621454
     0.021770345241282    -0.000419117349525    -0.009934779556219
1 37
    -0.067813496042699     0.022175318153785     0.039387470359964
     0.007897491809866     0.021907611282409    -0.001113328398657
     0.002899076573158     0.030365555608652    -0.044699223877926
1 38
    -0.010351827241797    -0.038308190013294     0.040961101380653
    -0.020596915985681    -0.038851383196407     0.041926633412826
     0.024932960757039     0.030623452376923    -0.020353517265358
1 39
    -0.010061229263152    -0.032002727392568     0.020653701740198
    -0.049737178536288    -0.048549633444548    -0.018358483424529
    -0.003873485279595    -0.011720691535781    -0.020898475903018
1 40
    -0.059457812876034     0.010261404247986     0.003658978651955
    -0.002230819525931     0.027879350992054     0.030997986148943
     0.010331585616389     0.005088835630438     0.006829488011609
1 41
    -0.031542188163226    -0.016839103080030    -0.019626508802880
     0.035380535957173     0.021193930831729     0.004177546474215
    -0.047881878212825     0.016133488078549    -0.029856959094477
1 42
     0.036155666706492     0.018577662396531    -0.015226203046041
     0.021697610593990    -0.000856196054005     0.005196897569242
    -0.016489836888706     0.003326277572445     0.030487239368331
1 43
    -0.006637966094130    -0.001132441589200    -0.004667235204193
    -0.042316263251272    -0.049846904526507    -0.051329735541736
    -0.010086561845857    -0.054148571035675    -0.030637682616597
1 44
    -0.052639580612195    -0.025551512068502    -0.084883213248045
    -0.022787842479031    -0.070091772234905    -0.046326515356570
     0.023392852572109     0.039542362345683    -0.015192662009720
1 45
    -0.344977366612050     0.235594451793433    -0.884189743529312
     0.284403055839431    -0.004913283406378     0.529931046950763
    -0.870786433405438     0.439714546319421    -1.394293292867218
1 46
     0.018274394226414     0.024491077104100    -0.029304543426416
     0.039874657812660    -0.010783593982152     0.034945175905795
    -0.033506858265902     0.018807829308029    -0.037690650133082
1 47
     0.000488822903227     0.032799345205776     0.003008287747471
     0.016345548030594    -0.011886420656336    -0.033996466393390
    -0.001025370281003    -0.013334722604716    -0.030324573142411
1 48
     0.114786313368148    -0.003410293968311     0.003621350289346
    -0.008443212271064    -0.435772489121150    -0.878629417131160
     0.003236486398155    -0.822442375312580    -1.175485422531047
1 49
    -0.181714460319668     0.044969154829619    -0.008379754541465
     0.032506026124587     0.025103842325143     0.118952399559236
    -0.076058537682109     0.020495052019254    -0.045501227339860
1 50
    -0.039040720563437    -0.023977598687386     0.027349044037973
     0.022770404885072    -0.005037053347880    -0.012794342954292
    -0.024934253614654     0.007511635111864    -0.045716760974849
1 51
    -0.007183788643343     0.000120708942824    -0.009502912725896
    -0.003487244471734     0.013861600478494    -0.002412058105761
     0.005806496086358    -0.010964024840071     0.006655496331947
2 1
    -0.510384217609751     1.034584011481217    -0.609198042473775
     0.933013558045270    -1.613093248558848     0.064658337557344
     0.088422049987960    -0.212515298913746    -0.078472213366521
2 2
     8.041237464394419    -0.316859770258897     0.009850191142679
    -0.316859770258897     7.304400872455231    -0.153451476210879
     0.009850191142679    -0.153451476210879     3.238891451664384
2 3
    -0.487529212455585     0.809014484029218     0.044960079537619
     0.984850397655068    -1.357701730492798     0.033294431702530
    -0.392624038957688     0.142583660426515    -0.009449141751402
2 4
    -0.045414617781548     0.062389312450970     0.011852289401778
     0.042611832583517    -0.083289189797289    -0.005499983733736
     0.016130120974515     0.024228799200464     0.039225724562482
2 5
    -0.126353295954763     0.062279235449906     0.022624222023628
     0.062530972627863    -0.060562566209746    -0.001308441027078
     0.032212772282354    -0.026425341867338    -0.007763637074138
2 6
    -2.044338215192528    -0.013109945659753    -0.106812363595950
    -0.018097448359294     0.016481828641274     0.017795550431513
     0.199201122143837     0.038275668208464    -0.068334125728665
2 7
    -0.473182741390741    -0.847177402354034    -0.026027906587727
    -0.940300792799941    -1.375422705420142     0.047271472953052
     0.043851959099873     0.150958786993926    -0.011181159265780
2 8
     0.010099843056208    -0.003942301605822     0.002462809093743
     0.015768317195815    -0.121282367077592     0.051045835370034
     0.000980495494501    -0.036056707648941     0.048803544289666
2 9
    -0.030910394642617    -0.024342453912069    -0.049701583436502
    -0.040494272556980    -0.048519415310894    -0.002155991813969
    -0.030472106900781    -0.040782785271196    -0.007325299930776
2 10
    -0.106763214277377     0.010090792176562     0.012120625492594
     0.011883622969896     0.023130751473936     0.022065641565092
     0.001806439613807    -0.009005425041828     0.030250062640250
2 11
    -0.074770179984298    -0.010627838769763     0.026755489667959
    -0.028275182022098    -0.015606238588051    -0.000546859296385
    -0.009667475697296    -0.016188999793702    -0.025406201378818
2 12
    -0.013639953835486    -0.037148444980496     0.002953277847822
    -0.017735324770712    -0.070402528636387    -0.004745952636336
    -0.012397903259683     0.029216790715109     0.038735999431379
2 13
    -0.485533739201180    -0.982286190628419     0.089519809105571
    -0.961897577478699    -1.619234581108425     0.064775182567519
    -0.076369824808739    -0.205807778070573    -0.078404171864233
2 14
    -2.016161667217939     0.015098198491067     0.119919428366692
     0.010400472144785     0.018595561349558     0.005680548912683
    -0.199817580390630     0.050836674507563    -0.072817816061847
2 15
    -0.100163412162404     0.039821834580574    -0.003120200405251
     0.047838566074604    -0.030294029998715    -0.001330921321655
     0.027234835278365    -0.022336164323470    -0.025346836344608
2 16
    -0.020558237190617     0.028570688952416     0.006926572411238
     0.007002596160154    -0.099602218623132     0.008715055870252
     0.008233466390517     0.047813015085152     0.010255611268999
2 17
    -0.026632071654696     0.007670574998786    -0.027940174671331
     0.002325264844020     0.003478283468992    -0.016581611924292
     0.031693154027639    -0.012770975786555    -0.033347361537910
2 18
     0.030405391439465     0.001638027210347     0.009378585971431
     0.004735518513952    -0.007293495748118    -0.001876532579479
     0.002290881381670     0.006225879361831    -0.029860648608472
2 19
     0.011274728356797    -0.019025934446853     0.010881068393832
    -0.022579851652711     0.033532339053185     0.007994441005318
     0.012445768138570     0.017271015424884     0.016805671247083
2 20
    -0.012557152980043    -0.015796899878938     0.039631058886152
    -0.013352574756296     0.021139511150316     0.009702995394752
     0.001991188322013     0.014865475700600     0.014413477735158
2 21
     0.044439969867720     0.029383104853739     0.010988766321390
     0.034634744514355    -0.007939106095628     0.001109883292213
     0.004791711450153    -0.015431133577808     0.028702195815601
2 22
    -0.042303278450078    -0.015609795497949     0.001100567204373
    -0.031244234557313     0.002452203366057    -0.008253224400983
    -0.011368274047091     0.009698076042759     0.046076624235650
2 23
     0.010400589148400     0.029436481902937    -0.000971447214935
     0.029180342788972     0.035250027524837     0.006751246394167
    -0.011017741616643     0.020047859621413     0.016989535927974
2 24
    -0.112487041527237     0.006499748423600     0.003920411529482
     0.005739971148660    -0.094115586301916     0.012337927206595
     0.005444305613442     0.003711401471670    -0.064359250316405
2 25
     0.053281836856073    -0.016632492896368    -0.005128437454021
    -0.015752984522079    -0.004241586452867     0.004256409510857
     0.001636113551220    -0.011895021722084     0.030207353720667
2 26
    -0.043041441257194     0.010027488020645     0.007067249757765
     0.007007372507730    -0.040406519845673     0.037027562045560
    -0.000580597938813    -0.006056985943509    -0.020983004514710
2 27
    -0.029313071689915    -0.004357102821991     0.021368409222611
     0.006244989952294    -0.018918272920420     0.009843852146822
     0.015370874115963     0.000084866622135    -0.022555062486796
2 28
    -0.002528981138270     0.032043013037279    -0.017524258049356
     0.023092616095662     0.024087833245020     0.011181408873492
     0.002401535600568     0.021585632934201     0.017452885844159
2 29
    -0.007091997322394     0.005398432396091     0.049967589855338
     0.006269004294268     0.006740292255716    -0.016121525108928
    -0.019288641363744    -0.010470661313430    -0.033632832158134
2 30
    -0.023936815379001     0.030367409465931     0.010605345474784
     0.046072924321333    -0.002861931825492    -0.008126852696460
     0.018225307309769     0.010228874642914     0.046500876743837
2 31
    -0.024400121093820     0.023676817745819    -0.015372863177419
     0.005971651306913    -0.020710248287324     0.010014555221058
    -0.014075397089435     0.002461217844578    -0.022778770798742
2 32
     0.027869273080675     0.006529241134841     0.015627580047441
     0.005890325994194    -0.013820682819494    -0.007608578683278
     0.003372478399918     0.002784600236168     0.041087746093612
2 33
    -0.122887245863748     0.015898708624537     0.178215169138027
     0.025622902474261    -0.064476368335016    -0.041409571037080
    -0.001168840113810    -0.001846759059563    -0.018261479627390
2 34
    -0.234978058548648    -0.180116927696917     0.658091926554681
    -0.137279363938954    -0.042915862577173     0.340281795732366
     0.519626897382069     0.316989587069865    -0.981732207111916
2 35
    -0.058306889915812    -0.000336174786838     0.007610627546582
     0.008001645827926    -0.087348276611439     0.092097266141607
    -0.013781811618485     0.001249362001706    -0.032005400275153
2 36
    -0.023276340372216     0.044276570419146    -0.039151786077995
     0.041356427995113    -0.030990726724648    -0.016963501323580
    -0.016911671322181     0.005276748636412     0.011512154692590
2 37
    -0.067652140257268     0.001635923745356     0.003269710224676
     0.006845262699001     0.001650078582700     0.019460813483369
    -0.003132532586280     0.015017926210884    -0.030937003864765
2 38
    -0.075215326738057     0.006559105657569     0.030594105270181
     0.008511778989579     0.016348746129406     0.019758429078838
     0.033553376303176     0.014947146824004    -0.008702229673960
2 39
     0.014837641840614    -0.018942570671151     0.027004267954495
    -0.001579988217108    -0.036693098111583     0.028042147221991
     0.046810242102340    -0.027091916662589    -0.044583294096028
2 40
    -0.017848779276132    -0.040207390093134     0.047786195256496
    -0.030916471030360    -0.031606709156740    -0.021012845636715
     0.008959973037491     0.008739754033355     0.009928796771368
2 41
    -0.097112477897278    -0.026042272031578    -0.130984317240050
    -0.014446111343443    -0.066016559722516    -0.037052002800709
    -0.001488886602329    -0.002235699876719    -0.017593144577752
2 42
    -0.050965776296438    -0.005068032387678    -0.014215460817003
     0.018551255980649     0.014142772971157     0.022374978322712
    -0.030445214269876     0.017437501168817    -0.009013966305728
2 43
     0.017536569429742     0.006692050365179     0.007885627643297
     0.008067209453654     0.023851628946984    -0.002959954854123
     0.003978247716454     0.005727519363935     0.018118693615711
2 44
    -0.010362989386676     0.002597352850760     0.009748650205355
    -0.042925074661800    -0.023688005891501    -0.038303052254552
     0.006935108474978    -0.019007861288444    -0.025869319887853
2 45
     0.120231014193801     0.000811199063726     0.040580551022738
    -0.001824629775831    -0.274105955088525    -0.678337246677057
    -0.002592870312262    -0.606304069858314    -0.983195464722383
2 46
    -0.220577287406087     0.167704744796034    -0.611704816325903
     0.149411801596510    -0.047645489309085     0.333027012580356
    -0.562955007896522     0.302173299689043    -0.978843523059857
2 47
     0.014232059729862     0.029676365314647    -0.012567158089172
     0.017856600317779    -0.044228240125878     0.029322608784584
    -0.065907548754390    -0.027817092068431    -0.045729890522572
2 48
    -0.020064398732424     0.024180939521738     0.031589642229421
     0.052498497653136    -0.031603084644753    -0.037703426927848
    -0.006008819455302    -0.020644190646332    -0.025735771961604
2 49
    -0.027975604970368     0.001400065816019     0.137756225196756
     0.007668704575662    -0.000697623727541    -0.007969672727113
     0.008468270565683     0.046737204045063     0.016990704975932
2 50
    -0.019454780420139    -0.011424027477989    -0.035210659119271
     0.006433606509388     0.004803658240668     0.007631574948230
    -0.004939428362380    -0.004935795492264    -0.013483322088230
2 51
     0.015497093619898     0.000126883647812     0.004658047600787
     0.009614842178246     0.078585592041107    -0.105456534324381
     0.006549519463508     0.159456155663057    -0.062199010167615
3 1
    -0.036182793344628     0.091003604750604     0.021420605835337
     0.069199591069063    -0.108642211733014     0.014691356120804
    -0.017173938825496    -0.005916222794331     0.025964079815663
3 2
    -0.487529212455585     0.984850397655068    -0.392624038957688
     0.809014484029218    -1.357701730492798     0.142583660426515
     0.044960079537619     0.033294431702530    -0.009449141751402
3 3
     6.948370156126351    -0.485483300242761    -0.373922516534236
    -0.485483300242761     7.785321413921821    -0.341546571010297
    -0.373922516534236    -0.341546571010297     3.928517958547231
3 4
    -0.452487297960845     0.786515708081515     0.110623652353851
     0.851020224886238    -1.389985375764924    -0.141436125370970
    -0.621486152141150     0.080544531995228    -0.045322746542990
3 5
     0.025077730630013    -0.005087798198385     0.027115143180222
     0.051811007811670    -0.110782772070194     0.012601814559958
     0.006635563619901     0.001157727370458    -0.008822353385438
3 6
    -0.078599344294502     0.023230365751732    -0.010371327844310
     0.057774734073722    -0.057216975240572    -0.006011565140136
     0.029819182527289    -0.021483863189808    -0.013631287767730
3 7
    -1.084496669439317     0.119500246015158     0.146072653626407
    -0.132231755182308     0.032188568134515     0.072374585567295
    -0.127790651564932     0.073229216372938     0.162908943419515
3 8
    -0.234847479914143    -0.723947829913376     0.059712129333683
    -0.463893889391833    -0.887638737093330    -0.036631582810936
     0.010273120209976    -0.133098174752189     0.227268635749576
3 9
    -0.045328193711292    -0.021512560276465     0.059971125935936
    -0.025269918168057    -0.057668648195972     0.010070009734444
     0.010548772926855    -0.002129060181859    -0.013763871064174
3 10
    -0.075824127748263    -0.036235663378160     0.027438450169482
    -0.035119134280611    -0.051050312708371     0.004719390215634
     0.007332307147279    -0.002458778969224     0.006160528942691
3 11
    -0.081330632483480     0.011878126400067    -0.029968754748642
     0.016629047789924     0.004532561443160     0.005149607308109
     0.008393831545341    -0.008015831866234     0.000192463146560
3 12
    -0.075670694407613    -0.007411063580627     0.030677008831664
    -0.031656604698369     0.002599653921857     0.032329747296546
    -0.000661707444864     0.009147667636716    -0.007522841034230
3 13
    -0.015167893644448     0.016093998058421     0.002481082458338
    -0.006918129950391    -0.084365253844584     0.027568183777878
     0.003788782462521    -0.007157438744347    -0.010266542006728
3 14
    -0.611059725994461    -1.414726190585204     0.067007255332172
    -1.283940488281786    -2.284536707237612     0.108751165499373
    -0.058253234658019    -0.158151810437738     0.048724852858326
3 15
    -2.762631262989341     0.034401954121799     0.214772784863592
    -0.017301516967295     0.067917660461081    -0.004294058674108
    -0.160684735897876     0.010167827356728     0.007893360282213
3 16
    -0.107217063500017     0.033738876434599     0.022620581911159
     0.026360001848519    -0.026756945712947     0.005008300742141
     0.044304765690299     0.015391581155751     0.016786955868831
3 17
    -0.014627027533235    -0.014434254977116    -0.006204051687419
    -0.024371743817043     0.034280304163164     0.021562268612311
     0.022795143504612    -0.012289797119513     0.024161121709424
3 18
    -0.016714517630697    -0.010363145391496     0.055100309641671
     0.018409385197248     0.001699802519027    -0.018796186148289
     0.019603994707259     0.016731685961149    -0.033564723053758
3 19
     0.013923339191282    -0.008736163322412    -0.000415859448865
    -0.012007235989184    -0.004355077359410     0.045037210920757
    -0.018271874748569    -0.008836484822059    -0.035406890371449
3 20
     0.028584630583172    -0.015517898258588    -0.011468621547541
    -0.013241798333622     0.046315868027598    -0.004912885594086
    -0.004851445695770     0.026667814959062     0.009970946673679
3 21
    -0.087845409371417    -0.003146092005227     0.024464878694644
     0.002121171538122    -0.090279549979386     0.008383272619101
     0.009319402942845     0.012245184941124    -0.034811102763320
3 22
     0.039760888697521     0.033000495220735    -0.027395379838732
     0.015170940938601    -0.002292589634450    -0.008388748388286
     0.016818528644339     0.005458554053678     0.019185503977094
3 23
    -0.000239540201106     0.008014318619479    -0.015849023689415
     0.014236804876473    -0.010633938558228     0.020914234989929
     0.004067599477168     0.008385396884734     0.059141869314283
3 24
     0.004344497632527     0.032030691256572    -0.020059585983723
     0.018871539076479     0.013122410444879     0.007703094203537
     0.021939431065550     0.049579130053043     0.023139050930366
3 25
    -0.006719197803957     0.050942679782822    -0.004853328153932
     0.023078489859202     0.026151974621074    -0.000907786848012
    -0.016491300733935    -0.010893520178557     0.027370413867355
3 26
     0.066717190369995    -0.013866709441585    -0.003298186304505
     0.008376320004285    -0.015887507478453     0.019564455285604
    -0.003440590104375    -0.000972172637349     0.033223374107054
3 27
    -0.027233036022773    -0.003661539731085    -0.004276216922849
    -0.015863872748208    -0.015731783467028     0.036119949402930
     0.005611646783805     0.031059163439146    -0.019720977521692
3 28
    -0.021754911164413     0.013273321707604     0.031406151960097
     0.017227237872283    -0.017408562274688    -0.019353258560230
     0.024541222253442     0.005602853312112    -0.062740050287764
3 29
     0.035058253399566     0.003721414381040    -0.057626188884101
     0.004727593469091    -0.038817259742090     0.003482011984192
    -0.030199790086972    -0.006175736812570     0.039473405615117
3 30
     0.013285778692489     0.008575610961804    -0.001398120397914
    -0.006469808498543    -0.001212238054682     0.016830426611952
     0.013865737011540     0.028429374586207    -0.072009406884320
3 31
    -0.031758377042843     0.034027838962713    -0.019434888082348
     0.052098925107489    -0.004126441895230    -0.025059262259393
     0.016436129629306     0.010392349493819     0.015617216127225
3 32
    -0.016898431713115     0.027028269296068     0.007141885063782
     0.006084200984375    -0.018659211316159     0.014220515373174
    -0.010197543674877    -0.000669398482495     0.008349965590009
3 33
    -0.007294486378726     0.044282108590259    -0.030131472976169
     0.042989645056840    -0.060167497003239    -0.007866342847452
    -0.000065561025648     0.027830035268339     0.010817114217831
3 34
    -0.070095726957094     0.017044077813162     0.105850190867570
     0.005505462103002    -0.071717204656109    -0.015573786985389
    -0.015156133481093     0.042124938939899    -0.021912047019461
3 35
    -0.348092538461933    -0.202079398074315     0.793977080616545
    -0.238109704507534    -0.076186318938933     0.470100585360952
     0.711766313139416     0.423347435822609    -1.112657952342259
3 36
    -0.051474999429974     0.016477554109203     0.037190880891644
     0.027787916566992    -0.081771715311675     0.075207417293678
    -0.018481157814816     0.005683383000248    -0.017492193858664
3 37
     0.005434368106402    -0.034214558531812     0.025564907682388
    -0.014065732590830    -0.037750204973155     0.012267129619152
    -0.011272523488673    -0.009317395680826    -0.027838813139550
3 38
    -0.063953375176026     0.000007241223733     0.032919292111792
     0.011482581378860     0.003685725678362     0.025063627794276
    -0.022660287737955    -0.020640623336113     0.000288047299836
3 39
    -0.043740280449322     0.002990029983358     0.029375905231291
     0.001122855093005     0.006668982452447    -0.002778029833161
     0.031028596894727    -0.024626185078549    -0.041983021355052
3 40
    -0.008743032734657    -0.007964820890141     0.030088592451284
    -0.037089043545162    -0.035356090001864     0.023463455153527
     0.035827328561785    -0.016991805798107    -0.033347676147631
3 41
     0.012998155205748    -0.005913245702347     0.021075195563149
    -0.027643838315387    -0.041259757008256    -0.045369215178738
     0.007060575351545     0.020836019373290    -0.003597868963841
3 42
    -0.080273668626326    -0.027453658039361    -0.084060290422088
    -0.022081564457064    -0.032012165684185    -0.039494266059645
    -0.028714814005467     0.008790567403342     0.012065992604595
3 43
    -0.066340501131377    -0.014168503366152    -0.030789165896996
     0.048084328267951     0.005533321963792     0.037099072055014
    -0.018105378604316     0.014179610909344    -0.013682262342698
3 44
     0.015937608426429     0.010189340421420     0.018525879196579
     0.019643911140562    -0.003393432447338     0.000039765628644