<?xml version="1.0" encoding="ISO-8859-1"?>
<modeling>
 <generator>
  <i name="program" type="string">vasp </i>
  <i name="version" type="string">6.4.1  </i>
  <i name="subversion" type="string">05Apr23 (build Jun 16 2023 21:11:36) complex                          parallel </i>
  <i name="platform" type="string">LinuxIFC </i>
  <i name="date" type="string">2026 03 07 </i>
  <i name="time" type="string">16:58:10 </i>
 </generator>
 <incar>
  <i type="string" name="SYSTEM">Bulk Frequency (Finite Difference)</i>
  <i type="string" name="ALGO">F</i>
  <i type="int" name="NELM">   150</i>
  <i type="int" name="NELMIN">     6</i>
  <i type="int" name="IBRION">     5</i>
  <i type="int" name="NFREE">     1</i>
  <i name="EDIFF">      0.00001000</i>
  <i type="int" name="ISIF">     2</i>
  <i type="int" name="ISYM">     0</i>
  <i name="ENCUT">    500.00000000</i>
  <i name="POTIM">      0.01500000</i>
  <i type="string" name="LREAL">Auto</i>
  <i type="int" name="ISMEAR">     1</i>
  <i name="SIGMA">      0.10000000</i>
  <i type="logical" name="LWAVE"> F  </i>
  <i type="logical" name="LCHARG"> F  </i>
 </incar>
 <primitive_cell>
  <structure name="primitive_cell" >
   <crystal>
    <varray name="basis" >
     <v>      10.11850195       0.00000000       0.00000000 </v>
     <v>      -5.05925097       8.76287974       0.00000000 </v>
     <v>       0.00000000       0.00000000      18.58887505 </v>
    </varray>
    <i name="volume">   1648.22379336 </i>
    <varray name="rec_basis" >
     <v>       0.09882886       0.05705887      -0.00000000 </v>
     <v>       0.00000000       0.11411774      -0.00000000 </v>
     <v>       0.00000000       0.00000000       0.05379562 </v>
    </varray>
   </crystal>
   <varray name="positions" >
    <v>       0.99895999       0.00227913       0.61194661 </v>
    <v>       0.00035605       0.25069285       0.61520217 </v>
    <v>       0.99122698       0.49622431       0.60978119 </v>
    <v>       0.99601494       0.74998253       0.61129381 </v>
    <v>       0.24412919       0.00583454       0.61765191 </v>
    <v>       0.25063443       0.25247159       0.61191696 </v>
    <v>       0.25490390       0.49620421       0.60980535 </v>
    <v>       0.25220411       0.75440494       0.60777348 </v>
    <v>       0.51173854       0.00583831       0.61761219 </v>
    <v>       0.50348135       0.25663123       0.61152381 </v>
    <v>       0.50153166       0.50153566       0.61323699 </v>
    <v>       0.50392419       0.74997502       0.61129910 </v>
    <v>       0.75332191       0.00231454       0.61194531 </v>
    <v>       0.75184164       0.25248356       0.61191434 </v>
    <v>       0.74997083       0.50151361       0.61323481 </v>
    <v>       0.75054999       0.75120694       0.61330030 </v>
    <v>       0.08332860       0.16668598       0.38888246 </v>
    <v>       0.08331514       0.41662990       0.38880445 </v>
    <v>       0.08329656       0.66668218       0.38877180 </v>
    <v>       0.08330462       0.91671532       0.38881953 </v>
    <v>       0.33332178       0.16673118       0.38887295 </v>
    <v>       0.33335814       0.41664609       0.38882354 </v>
    <v>       0.33338544       0.66668208       0.38877176 </v>
    <v>       0.33337433       0.91674882       0.38878326 </v>
    <v>       0.58340958       0.16673046       0.38887277 </v>
    <v>       0.58335647       0.41667189       0.38886969 </v>
    <v>       0.58338708       0.66668638       0.38882951 </v>
    <v>       0.58341121       0.91671535       0.38881939 </v>
    <v>       0.83335780       0.16668569       0.38888239 </v>
    <v>       0.83328938       0.41664654       0.38882351 </v>
    <v>       0.83329862       0.66668629       0.38883031 </v>
    <v>       0.83338123       0.91674161       0.38888554 </v>
    <v>       0.16661308       0.08355310       0.49996450 </v>
    <v>       0.16654186       0.33305635       0.49974738 </v>
    <v>       0.16666182       0.58332179       0.49944690 </v>
    <v>       0.16639967       0.83372620       0.49947210 </v>
    <v>       0.41681133       0.08362245       0.49982840 </v>
    <v>       0.41666252       0.33333757       0.49997636 </v>
    <v>       0.41711941       0.58348478       0.49964770 </v>
    <v>       0.41732591       0.83372593       0.49947213 </v>
    <v>       0.66694174       0.08355250       0.49996383 </v>
    <v>       0.66667955       0.33334117       0.49997378 </v>
    <v>       0.66664377       0.58336190       0.49992685 </v>
    <v>       0.66687610       0.83344421       0.49990338 </v>
    <v>       0.91672470       0.08344133       0.50002420 </v>
    <v>       0.91651580       0.33305636       0.49974707 </v>
    <v>       0.91636196       0.58348581       0.49964693 </v>
    <v>       0.91656565       0.83344218       0.49990356 </v>
    <v>       0.34642013       0.94271117       0.68215124 </v>
    <v>       0.36319937       0.97611362       0.73476667 </v>
    <v>       0.15801651       0.56627006       0.70590206 </v>
   </varray>
  </structure>
  <varray name="primitive_index" >
   <v type="int" >        1 </v>
   <v type="int" >        2 </v>
   <v type="int" >        3 </v>
   <v type="int" >        4 </v>
   <v type="int" >        5 </v>
   <v type="int" >        6 </v>
   <v type="int" >        7 </v>
   <v type="int" >        8 </v>
   <v type="int" >        9 </v>
   <v type="int" >       10 </v>
   <v type="int" >       11 </v>
   <v type="int" >       12 </v>
   <v type="int" >       13 </v>
   <v type="int" >       14 </v>
   <v type="int" >       15 </v>
   <v type="int" >       16 </v>
   <v type="int" >       17 </v>
   <v type="int" >       18 </v>
   <v type="int" >       19 </v>
   <v type="int" >       20 </v>
   <v type="int" >       21 </v>
   <v type="int" >       22 </v>
   <v type="int" >       23 </v>
   <v type="int" >       24 </v>
   <v type="int" >       25 </v>
   <v type="int" >       26 </v>
   <v type="int" >       27 </v>
   <v type="int" >       28 </v>
   <v type="int" >       29 </v>
   <v type="int" >       30 </v>
   <v type="int" >       31 </v>
   <v type="int" >       32 </v>
   <v type="int" >       33 </v>
   <v type="int" >       34 </v>
   <v type="int" >       35 </v>
   <v type="int" >       36 </v>
   <v type="int" >       37 </v>
   <v type="int" >       38 </v>
   <v type="int" >       39 </v>
   <v type="int" >       40 </v>
   <v type="int" >       41 </v>
   <v type="int" >       42 </v>
   <v type="int" >       43 </v>
   <v type="int" >       44 </v>
   <v type="int" >       45 </v>
   <v type="int" >       46 </v>
   <v type="int" >       47 </v>
   <v type="int" >       48 </v>
   <v type="int" >       49 </v>
   <v type="int" >       50 </v>
   <v type="int" >       51 </v>
  </varray>
 </primitive_cell>
 <kpoints>
  <generation param="Gamma">
   <v type="int" name="divisions">       3        3        1 </v>
   <v name="usershift">      0.00000000       0.00000000       0.00000000 </v>
   <v name="genvec1">      0.33333333       0.00000000       0.00000000 </v>
   <v name="genvec2">      0.00000000       0.33333333       0.00000000 </v>
   <v name="genvec3">      0.00000000       0.00000000       1.00000000 </v>
   <v name="shift">      0.00000000       0.00000000       0.00000000 </v>
  </generation>
  <varray name="kpointlist" >
   <v>       0.00000000       0.00000000       0.00000000 </v>
   <v>       0.33333333       0.00000000      -0.00000000 </v>
   <v>       0.00000000       0.33333333      -0.00000000 </v>
   <v>      -0.33333333       0.33333333      -0.00000000 </v>
   <v>       0.33333333       0.33333333      -0.00000000 </v>
  </varray>
  <varray name="weights" >
   <v>       0.11111111 </v>
   <v>       0.22222222 </v>
   <v>       0.22222222 </v>
   <v>       0.22222222 </v>
   <v>       0.22222222 </v>
  </varray>
 </kpoints>
 <parameters>
  <separator name="general" >
   <i type="string" name="SYSTEM">Bulk Frequency (Finite Difference)</i>
   <i type="logical" name="LCOMPAT"> F  </i>
  </separator>
  <separator name="electronic" >
   <i type="string" name="PREC">normal</i>
   <i name="ENMAX">    500.00000000</i>
   <i name="ENAUG">    627.11200000</i>
   <i name="EDIFF">      0.00001000</i>
   <i type="int" name="IALGO">    68</i>
   <i type="int" name="IWAVPR">    11</i>
   <i type="int" name="NBANDS">   324</i>
   <i type="int" name="NBANDSLOW">    -1</i>
   <i type="int" name="NBANDSHIGH">    -1</i>
   <i name="NELECT">    535.00000000</i>
   <i type="int" name="TURBO">     0</i>
   <i type="int" name="IRESTART">     0</i>
   <i type="int" name="NREBOOT">     0</i>
   <i type="int" name="NMIN">     0</i>
   <i name="EREF">      0.00000000</i>
   <separator name="electronic smearing" >
    <i type="int" name="ISMEAR">     1</i>
    <i name="SIGMA">      0.10000000</i>
    <i name="KSPACING">      0.50000000</i>
    <i type="logical" name="KGAMMA"> T  </i>
    <i type="logical" name="KBLOWUP"> T  </i>
   </separator>
   <separator name="electronic projectors" >
    <i type="logical" name="LREAL"> T  </i>
    <v name="ROPT">     -0.00050000     -0.00050000     -0.00050000</v>
    <i type="int" name="LMAXPAW">  -100</i>
    <i type="int" name="LMAXMIX">     2</i>
    <i type="logical" name="NLSPLINE"> F  </i>
   </separator>
   <separator name="electronic startup" >
    <i type="int" name="ISTART">     0</i>
    <i type="int" name="ICHARG">     2</i>
    <i type="int" name="INIWAV">     1</i>
   </separator>
   <separator name="electronic spin" >
    <i type="int" name="ISPIN">     1</i>
    <i type="logical" name="LNONCOLLINEAR"> F  </i>
    <v name="MAGMOM">      1.00000000      1.00000000      1.00000000      1.00000000      1.00000000      1.00000000      1.00000000      1.00000000      1.00000000      1.00000000      1.00000000      1.00000000      1.00000000      1.00000000      1.00000000      1.00000000      1.00000000      1.00000000      1.00000000      1.00000000
      1.00000000      1.00000000      1.00000000      1.00000000      1.00000000      1.00000000      1.00000000      1.00000000      1.00000000      1.00000000      1.00000000      1.00000000      1.00000000      1.00000000      1.00000000      1.00000000      1.00000000      1.00000000      1.00000000      1.00000000
      1.00000000      1.00000000      1.00000000      1.00000000      1.00000000      1.00000000      1.00000000      1.00000000      1.00000000      1.00000000      1.00000000</v>
    <i name="NUPDOWN">     -1.00000000</i>
    <i type="logical" name="LSORBIT"> F  </i>
    <v name="SAXIS">      0.00000000      0.00000000      1.00000000</v>
    <i type="logical" name="LSPIRAL"> F  </i>
    <v name="QSPIRAL">      0.00000000      0.00000000      0.00000000</v>
    <i type="logical" name="LZEROZ"> F  </i>
   </separator>
   <separator name="electronic exchange-correlation" >
    <i type="logical" name="LASPH"> F  </i>
    <i type="logical" name="LMETAGGA"> F  </i>
   </separator>
   <separator name="electronic convergence" >
    <i type="int" name="NELM">   150</i>
    <i type="int" name="NELMDL">    -5</i>
    <i type="int" name="NELMIN">     6</i>
    <i name="ENINI">    500.00000000</i>
    <separator name="electronic convergence detail" >
     <i type="logical" name="LDIAG"> T  </i>
     <i type="logical" name="LSUBROT"> F  </i>
     <i name="WEIMIN">      0.00100000</i>
     <i name="EBREAK">      0.00000001</i>
     <i name="DEPER">      0.30000000</i>
     <i type="int" name="NRMM">     4</i>
     <i name="TIME">      0.40000000</i>
    </separator>
   </separator>
   <separator name="electronic mixer" >
    <i name="AMIX">      0.40000000</i>
    <i name="BMIX">      1.00000000</i>
    <i name="AMIN">      0.10000000</i>
    <i name="AMIX_MAG">      1.60000000</i>
    <i name="BMIX_MAG">      1.00000000</i>
    <separator name="electronic mixer details" >
     <i type="int" name="IMIX">     4</i>
     <i type="logical" name="MIXFIRST"> F  </i>
     <i type="int" name="MAXMIX">   -45</i>
     <i name="WC">    100.00000000</i>
     <i type="int" name="INIMIX">     1</i>
     <i type="int" name="MIXPRE">     1</i>
     <i type="int" name="MREMOVE">     5</i>
    </separator>
   </separator>
   <separator name="electronic dipolcorrection" >
    <i type="logical" name="LDIPOL"> F  </i>
    <i type="logical" name="LMONO"> F  </i>
    <i type="int" name="IDIPOL">     0</i>
    <i name="EPSILON">      1.00000000</i>
    <v name="DIPOL">   -100.00000000   -100.00000000   -100.00000000</v>
    <i name="EFIELD">      0.00000000</i>
   </separator>
  </separator>
  <separator name="grids" >
   <i type="int" name="NGX">    56</i>
   <i type="int" name="NGY">    56</i>
   <i type="int" name="NGZ">   108</i>
   <i type="int" name="NGXF">   112</i>
   <i type="int" name="NGYF">   112</i>
   <i type="int" name="NGZF">   216</i>
   <i type="logical" name="ADDGRID"> F  </i>
  </separator>
  <separator name="ionic" >
   <i type="int" name="NSW">   649</i>
   <i type="int" name="IBRION">     5</i>
   <i type="int" name="MDALGO">     0</i>
   <i type="int" name="ISIF">     2</i>
   <i name="PSTRESS">      0.00000000</i>
   <i name="EDIFFG">      0.00010000</i>
   <i type="int" name="NFREE">     1</i>
   <i name="POTIM">      0.01500000</i>
   <i name="SMASS">     -3.00000000</i>
   <i name="SCALEE">      1.00000000</i>
  </separator>
  <separator name="ionic md" >
   <i name="TEBEG">      0.00010000</i>
   <i name="TEEND">      0.00010000</i>
   <i type="int" name="NBLOCK">     1</i>
   <i type="int" name="KBLOCK">   649</i>
   <i type="int" name="NPACO">   256</i>
   <i name="APACO">     10.00000000</i>
  </separator>
  <separator name="symmetry" >
   <i type="int" name="ISYM">     0</i>
   <i name="SYMPREC">      0.00001000</i>
  </separator>
  <separator name="dos" >
   <i type="int" name="LORBIT">     0</i>
   <v name="RWIGS">     -1.00000000     -1.00000000     -1.00000000</v>
   <i type="int" name="NEDOS">   301</i>
   <i name="EMIN">     10.00000000</i>
   <i name="EMAX">    -10.00000000</i>
   <i name="EFERMI">      0.00000000</i>
  </separator>
  <separator name="writing" >
   <i type="int" name="NWRITE">     2</i>
   <i type="logical" name="LWAVE"> F  </i>
   <i type="logical" name="LDOWNSAMPLE"> F  </i>
   <i type="logical" name="LCHARG"> F  </i>
   <i type="logical" name="LPARD"> F  </i>
   <i type="logical" name="LVTOT"> F  </i>
   <i type="logical" name="LVHAR"> F  </i>
   <i type="logical" name="LELF"> F  </i>
   <i type="logical" name="LOPTICS"> F  </i>
   <v name="STM">      0.00000000      0.00000000      0.00000000      0.00000000      0.00000000      0.00000000      0.00000000</v>
  </separator>
  <separator name="performance" >
   <i type="int" name="NPAR">     4</i>
   <i type="int" name="NSIM">     4</i>
   <i type="int" name="NBLK">    -1</i>
   <i type="logical" name="LPLANE"> T  </i>
   <i type="logical" name="LSCALAPACK"> T  </i>
   <i type="logical" name="LSCAAWARE"> F  </i>
   <i type="logical" name="LSCALU"> F  </i>
   <i type="logical" name="LASYNC"> F  </i>
   <i type="logical" name="LORBITALREAL"> F  </i>
  </separator>
  <separator name="miscellaneous" >
   <i type="int" name="IDIOT">     3</i>
   <i type="int" name="PHON_NSTRUCT">    -1</i>
   <i type="logical" name="LMUSIC"> F  </i>
   <v name="POMASS">     63.54600000     14.00100000      1.00000000</v>
   <v name="DARWINR">      0.00000000      0.00000000      0.00000000</v>
   <v name="DARWINV">      1.00000000      1.00000000      1.00000000</v>
   <i type="logical" name="LCORR"> T  </i>
  </separator>
  <i type="logical" name="GGA_COMPAT"> T  </i>
  <i type="logical" name="LBERRY"> F  </i>
  <i type="int" name="ICORELEVEL">     0</i>
  <i type="logical" name="LDAU"> F  </i>
  <i type="int" name="I_CONSTRAINED_M">     0</i>
  <separator name="electronic exchange-correlation" >
   <i type="string" name="GGA">--</i>
   <i type="int" name="VOSKOWN">     0</i>
   <i type="logical" name="LHFCALC"> F  </i>
   <i type="string" name="PRECFOCK"></i>
   <i type="logical" name="LSYMGRAD"> F  </i>
   <i type="logical" name="LHFONE"> F  </i>
   <i type="logical" name="LRHFCALC"> F  </i>
   <i type="logical" name="LTHOMAS"> F  </i>
   <i type="logical" name="LMODELHF"> F  </i>
   <i type="logical" name="LFOCKACE"> F  </i>
   <i name="ENCUT4O">     -1.00000000</i>
   <i type="int" name="EXXOEP">     0</i>
   <i type="int" name="FOURORBIT">     0</i>
   <i name="AEXX">      0.00000000</i>
   <i name="HFALPHA">      0.00000000</i>
   <i name="MCALPHA">      0.00000000</i>
   <i name="ALDAX">      1.00000000</i>
   <i name="AGGAX">      1.00000000</i>
   <i name="ALDAC">      1.00000000</i>
   <i name="AGGAC">      1.00000000</i>
   <i type="int" name="NKREDX">     1</i>
   <i type="int" name="NKREDY">     1</i>
   <i type="int" name="NKREDZ">     1</i>
   <i type="logical" name="SHIFTRED"> F  </i>
   <i type="logical" name="ODDONLY"> F  </i>
   <i type="logical" name="EVENONLY"> F  </i>
   <i type="int" name="LMAXFOCK">     0</i>
   <i type="int" name="NMAXFOCKAE">     0</i>
   <i type="logical" name="LFOCKAEDFT"> F  </i>
   <i name="HFSCREEN">      0.00000000</i>
   <i name="HFSCREENC">      0.00000000</i>
   <i type="int" name="NBANDSGWLOW">     0</i>
  </separator>
  <separator name="vdW DFT" >
   <i type="logical" name="LUSE_VDW"> F  </i>
   <i type="int" name="IVDW_NL">     1</i>
   <i type="logical" name="LSPIN_VDW"> F  </i>
   <i name="Zab_VDW">     -0.84910000</i>
   <i name="PARAM1">      0.12340000</i>
   <i name="PARAM2">      1.00000000</i>
   <i name="PARAM3">      0.00000000</i>
  </separator>
  <separator name="model GW" >
   <i type="int" name="MODEL_GW">     0</i>
   <i name="MODEL_EPS0">     19.39086816</i>
   <i name="MODEL_ALPHA">      1.00000000</i>
  </separator>
  <separator name="linear response parameters" >
   <i type="logical" name="LEPSILON"> F  </i>
   <i type="logical" name="LRPA"> F  </i>
   <i type="logical" name="LNABLA"> F  </i>
   <i type="logical" name="LVEL"> F  </i>
   <i name="CSHIFT">      0.10000000</i>
   <i name="OMEGAMAX">     -1.00000000</i>
   <i name="DEG_THRESHOLD">      0.00200000</i>
   <i name="RTIME">     -0.10000000</i>
   <i name="WPLASMAI">      0.00000000</i>
   <v name="DFIELD">      0.00000000      0.00000000      0.00000000</v>
   <v name="WPLASMA">      0.00000000      0.00000000      0.00000000      0.00000000      0.00000000      0.00000000      0.00000000      0.00000000      0.00000000</v>
  </separator>
  <separator name="orbital magnetization" >
   <i type="logical" name="NUCIND"> F  </i>
   <v name="MAGPOS">      0.00000000      0.00000000      0.00000000</v>
   <i type="logical" name="LNICSALL"> T  </i>
   <i type="logical" name="ORBITALMAG"> F  </i>
   <i type="logical" name="LMAGBLOCH"> F  </i>
   <i type="logical" name="LCHIMAG"> F  </i>
   <i type="logical" name="LGAUGE"> T  </i>
   <i type="int" name="MAGATOM">     0</i>
   <v name="MAGDIPOL">      0.00000000      0.00000000      0.00000000</v>
   <v name="AVECCONST">      0.00000000      0.00000000      0.00000000</v>
  </separator>
  <separator name="response functions" >
   <i type="logical" name="LALL_IN_ONE"> F  </i>
   <i type="int" name="IALL_IN_ONE">    -1</i>
   <i type="int" name="NBANDS_WAVE">    -1</i>
   <i type="logical" name="LFINITE_TEMPERATURE"> F  </i>
   <i type="logical" name="LADDER"> F  </i>
   <i type="logical" name="LRPAFORCE"> F  </i>
   <i type="logical" name="LFXC"> F  </i>
   <i type="logical" name="LHARTREE"> T  </i>
   <i type="int" name="IBSE">     0</i>
   <v type="int" name="KPOINT">    -1     0     0     0</v>
   <i type="logical" name="LTCTC"> F  </i>
   <i type="logical" name="LTCTE"> F  </i>
   <i type="logical" name="LTETE"> F  </i>
   <i type="logical" name="LTRIPLET"> F  </i>
   <i type="logical" name="LFXCEPS"> F  </i>
   <i type="logical" name="LFXHEG"> F  </i>
   <i type="int" name="NATURALO">     2</i>
   <i type="logical" name="LHOLEGF"> F  </i>
   <i type="logical" name="L2ORDER"> F  </i>
   <i type="logical" name="LDMP1"> F  </i>
   <i type="logical" name="LMP2LT"> F  </i>
   <i type="logical" name="LSMP2LT"> F  </i>
   <i type="logical" name="LGWLF"> F  </i>
   <i name="ENCUTGW">     -1.60000002</i>
   <i name="ENCUTGWSOFT">     -1.60000002</i>
   <i name="ENCUTLF">     -1.00000000</i>
   <i type="logical" name="LESF_SPLINES"> F  </i>
   <i type="int" name="LMAXMP2">    -1</i>
   <i name="SCISSOR">      0.00000000</i>
   <i type="int" name="NOMEGA">     0</i>
   <i type="int" name="NOMEGAR">     0</i>
   <i type="int" name="NBANDSGW">    -1</i>
   <i type="int" name="NBANDSO">    -1</i>
   <i type="int" name="NBANDSV">    -1</i>
   <i type="int" name="NELMGW">     1</i>
   <i type="int" name="NELMHF">     1</i>
   <i type="int" name="DIM">     3</i>
   <i type="int" name="IESPILON">     4</i>
   <i type="int" name="ANTIRES">     0</i>
   <i name="OMEGAMAX">    -30.00000000</i>
   <i name="OMEGAMIN">    -30.00000000</i>
   <i name="OMEGATL">   -200.00000000</i>
   <i type="int" name="OMEGAGRID">     0</i>
   <i name="CSHIFT">     -0.10000000</i>
   <i type="logical" name="LSELFENERGY"> F  </i>
   <i type="logical" name="LSPECTRAL"> F  </i>
   <i type="logical" name="LSPECTRALGW"> F  </i>
   <i type="logical" name="LSINGLES"> F  </i>
   <i type="logical" name="LFERMIGW"> F  </i>
   <i type="logical" name="ODDONLYGW"> F  </i>
   <i type="logical" name="EVENONLYGW"> F  </i>
   <i type="int" name="NKREDLFX">     1</i>
   <i type="int" name="NKREDLFY">     1</i>
   <i type="int" name="NKREDLFZ">     1</i>
   <i type="int" name="MAXMEM">  2800</i>
   <i type="int" name="TELESCOPE">     0</i>
   <i type="int" name="NTAUPAR">    -1</i>
   <i type="int" name="NOMEGAPAR">    -1</i>
   <i name="DAMP_NEWTON">      0.80000001</i>
   <i name="LAMBDA">      1.00000000</i>
  </separator>
  <separator name="External order field" >
   <i name="OFIELD_KAPPA">      0.00000000</i>
   <v name="OFIELD_K">      0.00000000      0.00000000      0.00000000</v>
   <i name="OFIELD_Q6_NEAR">      0.00000000</i>
   <i name="OFIELD_Q6_FAR">      0.00000000</i>
   <i name="OFIELD_A">      0.00000000</i>
  </separator>
  <separator name="optional k-points parameters" >
   <i type="int" name="KPOINTS_OPT_MODE">     1</i>
   <i type="logical" name="LKPOINTS_OPT"> F  </i>
  </separator>
  <separator name="solvation model" >
   <i type="logical" name="LSOL"> F  </i>
  </separator>
 </parameters>
 <atominfo>
  <atoms>      51 </atoms>
  <types>       3 </types>
  <array name="atoms" >
   <dimension dim="1">ion</dimension>
   <field type="string">element</field>
   <field type="int">atomtype</field>
   <set>
    <rc><c>Cu</c><c>   1</c></rc>
    <rc><c>Cu</c><c>   1</c></rc>
    <rc><c>Cu</c><c>   1</c></rc>
    <rc><c>Cu</c><c>   1</c></rc>
    <rc><c>Cu</c><c>   1</c></rc>
    <rc><c>Cu</c><c>   1</c></rc>
    <rc><c>Cu</c><c>   1</c></rc>
    <rc><c>Cu</c><c>   1</c></rc>
    <rc><c>Cu</c><c>   1</c></rc>
    <rc><c>Cu</c><c>   1</c></rc>
    <rc><c>Cu</c><c>   1</c></rc>
    <rc><c>Cu</c><c>   1</c></rc>
    <rc><c>Cu</c><c>   1</c></rc>
    <rc><c>Cu</c><c>   1</c></rc>
    <rc><c>Cu</c><c>   1</c></rc>
    <rc><c>Cu</c><c>   1</c></rc>
    <rc><c>Cu</c><c>   1</c></rc>
    <rc><c>Cu</c><c>   1</c></rc>
    <rc><c>Cu</c><c>   1</c></rc>
    <rc><c>Cu</c><c>   1</c></rc>
    <rc><c>Cu</c><c>   1</c></rc>
    <rc><c>Cu</c><c>   1</c></rc>
    <rc><c>Cu</c><c>   1</c></rc>
    <rc><c>Cu</c><c>   1</c></rc>
    <rc><c>Cu</c><c>   1</c></rc>
    <rc><c>Cu</c><c>   1</c></rc>
    <rc><c>Cu</c><c>   1</c></rc>
    <rc><c>Cu</c><c>   1</c></rc>
    <rc><c>Cu</c><c>   1</c></rc>
    <rc><c>Cu</c><c>   1</c></rc>
    <rc><c>Cu</c><c>   1</c></rc>
    <rc><c>Cu</c><c>   1</c></rc>
    <rc><c>Cu</c><c>   1</c></rc>
    <rc><c>Cu</c><c>   1</c></rc>
    <rc><c>Cu</c><c>   1</c></rc>
    <rc><c>Cu</c><c>   1</c></rc>
    <rc><c>Cu</c><c>   1</c></rc>
    <rc><c>Cu</c><c>   1</c></rc>
    <rc><c>Cu</c><c>   1</c></rc>
    <rc><c>Cu</c><c>   1</c></rc>
    <rc><c>Cu</c><c>   1</c></rc>
    <rc><c>Cu</c><c>   1</c></rc>
    <rc><c>Cu</c><c>   1</c></rc>
    <rc><c>Cu</c><c>   1</c></rc>
    <rc><c>Cu</c><c>   1</c></rc>
    <rc><c>Cu</c><c>   1</c></rc>
    <rc><c>Cu</c><c>   1</c></rc>
    <rc><c>Cu</c><c>   1</c></rc>
    <rc><c>N </c><c>   2</c></rc>
    <rc><c>H </c><c>   3</c></rc>
    <rc><c>H </c><c>   3</c></rc>
   </set>
  </array>
  <array name="atomtypes" >
   <dimension dim="1">type</dimension>
   <field type="int">atomspertype</field>
   <field type="string">element</field>
   <field>mass</field>
   <field>valence</field>
   <field type="string">pseudopotential</field>
   <set>
    <rc><c>  48</c><c>Cu</c><c>     63.54600000</c><c>     11.00000000</c><c>  PAW_PBE Cu 22Jun2005                  </c></rc>
    <rc><c>   1</c><c>N </c><c>     14.00100000</c><c>      5.00000000</c><c>  PAW_PBE N 08Apr2002                   </c></rc>
    <rc><c>   2</c><c>H </c><c>      1.00000000</c><c>      1.00000000</c><c>  PAW_PBE H 15Jun2001                   </c></rc>
   </set>
  </array>
 </atominfo>
 <structure name="initialpos" >
  <crystal>
   <varray name="basis" >
    <v>      10.11850195       0.00000000       0.00000000 </v>
    <v>      -5.05925097       8.76287974       0.00000000 </v>
    <v>       0.00000000       0.00000000      18.58887505 </v>
   </varray>
   <i name="volume">   1648.22379336 </i>
   <varray name="rec_basis" >
    <v>       0.09882886       0.05705887      -0.00000000 </v>
    <v>       0.00000000       0.11411774      -0.00000000 </v>
    <v>       0.00000000       0.00000000       0.05379562 </v>
   </varray>
  </crystal>
  <varray name="positions" >
   <v>       0.99895999       0.00227913       0.61194661 </v>
   <v>       0.00035605       0.25069285       0.61520217 </v>
   <v>       0.99122698       0.49622431       0.60978119 </v>
   <v>       0.99601494       0.74998253       0.61129381 </v>
   <v>       0.24412919       0.00583454       0.61765191 </v>
   <v>       0.25063443       0.25247159       0.61191696 </v>
   <v>       0.25490390       0.49620421       0.60980535 </v>
   <v>       0.25220411       0.75440494       0.60777348 </v>
   <v>       0.51173854       0.00583831       0.61761219 </v>
   <v>       0.50348135       0.25663123       0.61152381 </v>
   <v>       0.50153166       0.50153566       0.61323699 </v>
   <v>       0.50392419       0.74997502       0.61129910 </v>
   <v>       0.75332191       0.00231454       0.61194531 </v>
   <v>       0.75184164       0.25248356       0.61191434 </v>
   <v>       0.74997083       0.50151361       0.61323481 </v>
   <v>       0.75054999       0.75120694       0.61330030 </v>
   <v>       0.08332860       0.16668598       0.38888246 </v>
   <v>       0.08331514       0.41662990       0.38880445 </v>
   <v>       0.08329656       0.66668218       0.38877180 </v>
   <v>       0.08330462       0.91671532       0.38881953 </v>
   <v>       0.33332178       0.16673118       0.38887295 </v>
   <v>       0.33335814       0.41664609       0.38882354 </v>
   <v>       0.33338544       0.66668208       0.38877176 </v>
   <v>       0.33337433       0.91674882       0.38878326 </v>
   <v>       0.58340958       0.16673046       0.38887277 </v>
   <v>       0.58335647       0.41667189       0.38886969 </v>
   <v>       0.58338708       0.66668638       0.38882951 </v>
   <v>       0.58341121       0.91671535       0.38881939 </v>
   <v>       0.83335780       0.16668569       0.38888239 </v>
   <v>       0.83328938       0.41664654       0.38882351 </v>
   <v>       0.83329862       0.66668629       0.38883031 </v>
   <v>       0.83338123       0.91674161       0.38888554 </v>
   <v>       0.16661308       0.08355310       0.49996450 </v>
   <v>       0.16654186       0.33305635       0.49974738 </v>
   <v>       0.16666182       0.58332179       0.49944690 </v>
   <v>       0.16639967       0.83372620       0.49947210 </v>
   <v>       0.41681133       0.08362245       0.49982840 </v>
   <v>       0.41666252       0.33333757       0.49997636 </v>
   <v>       0.41711941       0.58348478       0.49964770 </v>
   <v>       0.41732591       0.83372593       0.49947213 </v>
   <v>       0.66694174       0.08355250       0.49996383 </v>
   <v>       0.66667955       0.33334117       0.49997378 </v>
   <v>       0.66664377       0.58336190       0.49992685 </v>
   <v>       0.66687610       0.83344421       0.49990338 </v>
   <v>       0.91672470       0.08344133       0.50002420 </v>
   <v>       0.91651580       0.33305636       0.49974707 </v>
   <v>       0.91636196       0.58348581       0.49964693 </v>
   <v>       0.91656565       0.83344218       0.49990356 </v>
   <v>       0.34642013       0.94271117       0.68215124 </v>
   <v>       0.36319937       0.97611362       0.73476667 </v>
   <v>       0.15801651       0.56627006       0.70590206 </v>
  </varray>
 </structure>
 <calculation>
  <scstep>
   <time name="dav">    1.97    2.07</time>
   <time name="total">    2.00    2.11</time>
   <energy>
    <i name="alphaZ">   1044.42981019 </i>
    <i name="ewald"> 153501.97003816 </i>
    <i name="hartreedc">-217679.21670287 </i>
    <i name="XCdc">   2210.09404161 </i>
    <i name="pawpsdc">  59163.12046064 </i>
    <i name="pawaedc"> -64244.73594820 </i>
    <i name="eentropy">     -0.01460622 </i>
    <i name="bandstr">   4057.73593580 </i>
    <i name="atom">  67056.38188117 </i>
    <i name="e_fr_energy">   5109.76491027 </i>
    <i name="e_wo_entrp">   5109.77951649 </i>
    <i name="e_0_energy">   5109.76977901 </i>
   </energy>
  </scstep>
  <scstep>
   <time name="dav">   12.03   12.20</time>
   <time name="total">   12.03   12.21</time>
   <energy>
    <i name="e_fr_energy">    569.81090842 </i>
    <i name="e_wo_entrp">    569.80526354 </i>
    <i name="e_0_energy">    569.80902680 </i>
   </energy>
  </scstep>
  <scstep>
   <time name="dav">    1.95    1.97</time>
   <time name="total">    1.95    1.97</time>
   <energy>
    <i name="e_fr_energy">   -150.73674707 </i>
    <i name="e_wo_entrp">   -150.74309581 </i>
    <i name="e_0_energy">   -150.73886331 </i>
   </energy>
  </scstep>
  <scstep>
   <time name="dav">    2.43    2.44</time>
   <time name="total">    2.43    2.44</time>
   <energy>
    <i name="e_fr_energy">   -216.84791921 </i>
    <i name="e_wo_entrp">   -216.82454836 </i>
    <i name="e_0_energy">   -216.84012893 </i>
   </energy>
  </scstep>
  <scstep>
   <time name="dav">    2.59    2.61</time>
   <time name="total">    2.65    2.67</time>
   <energy>
    <i name="e_fr_energy">   -221.04921878 </i>
    <i name="e_wo_entrp">   -221.02714807 </i>
    <i name="e_0_energy">   -221.04186188 </i>
   </energy>
  </scstep>
  <scstep>
   <time name="diag">    0.32    0.32</time>
   <time name="diis">    0.72    0.73</time>
   <time name="orth">    0.09    0.09</time>
   <time name="total">    1.20    1.21</time>
   <energy>
    <i name="e_fr_energy">   -198.53459606 </i>
    <i name="e_wo_entrp">   -198.53146755 </i>
    <i name="e_0_energy">   -198.53355322 </i>
   </energy>
  </scstep>
  <scstep>
   <time name="diag">    0.31    0.31</time>
   <time name="diis">    0.71    0.72</time>
   <time name="orth">    0.09    0.09</time>
   <time name="total">    1.19    1.19</time>
   <energy>
    <i name="e_fr_energy">   -178.79022386 </i>
    <i name="e_wo_entrp">   -178.73022553 </i>
    <i name="e_0_energy">   -178.77022442 </i>
   </energy>
  </scstep>
  <scstep>
   <time name="diag">    0.31    0.32</time>
   <time name="diis">    0.77    0.77</time>
   <time name="orth">    0.09    0.09</time>
   <time name="total">    1.24    1.25</time>
   <energy>
    <i name="e_fr_energy">   -178.05359645 </i>
    <i name="e_wo_entrp">   -177.98846791 </i>
    <i name="e_0_energy">   -178.03188693 </i>
   </energy>
  </scstep>
  <scstep>
   <time name="diag">    0.31    0.31</time>
   <time name="diis">    0.72    0.73</time>
   <time name="orth">    0.09    0.09</time>
   <time name="total">    1.19    1.19</time>
   <energy>
    <i name="e_fr_energy">   -177.77402874 </i>
    <i name="e_wo_entrp">   -177.70565637 </i>
    <i name="e_0_energy">   -177.75123795 </i>
   </energy>
  </scstep>
  <scstep>
   <time name="diag">    0.31    0.31</time>
   <time name="diis">    0.76    0.76</time>
   <time name="orth">    0.09    0.09</time>
   <time name="total">    1.23    1.24</time>
   <energy>
    <i name="e_fr_energy">   -177.66053941 </i>
    <i name="e_wo_entrp">   -177.59308597 </i>
    <i name="e_0_energy">   -177.63805493 </i>
   </energy>
  </scstep>
  <scstep>
   <time name="diag">    0.31    0.31</time>
   <time name="diis">    0.73    0.73</time>
   <time name="orth">    0.09    0.09</time>
   <time name="total">    1.21    1.22</time>
   <energy>
    <i name="e_fr_energy">   -177.64075202 </i>
    <i name="e_wo_entrp">   -177.57479877 </i>
    <i name="e_0_energy">   -177.61876760 </i>
   </energy>
  </scstep>
  <scstep>
   <time name="diag">    0.31    0.31</time>
   <time name="diis">    0.73    0.74</time>
   <time name="orth">    0.09    0.09</time>
   <time name="total">    1.20    1.20</time>
   <energy>
    <i name="e_fr_energy">   -177.61484928 </i>
    <i name="e_wo_entrp">   -177.54465031 </i>
    <i name="e_0_energy">   -177.59144962 </i>
   </energy>
  </scstep>
  <scstep>
   <time name="diag">    0.31    0.31</time>
   <time name="diis">    0.95    0.96</time>
   <time name="orth">    0.09    0.09</time>
   <time name="total">    1.42    1.43</time>
   <energy>
    <i name="e_fr_energy">   -177.60967160 </i>
    <i name="e_wo_entrp">   -177.54035664 </i>
    <i name="e_0_energy">   -177.58656661 </i>
   </energy>
  </scstep>
  <scstep>
   <time name="diag">    0.31    0.31</time>
   <time name="diis">    0.73    0.74</time>
   <time name="orth">    0.09    0.09</time>
   <time name="total">    1.20    1.21</time>
   <energy>
    <i name="e_fr_energy">   -177.60681235 </i>
    <i name="e_wo_entrp">   -177.53809330 </i>
    <i name="e_0_energy">   -177.58390600 </i>
   </energy>
  </scstep>
  <scstep>
   <time name="diag">    0.31    0.31</time>
   <time name="diis">    0.73    0.74</time>
   <time name="orth">    0.09    0.09</time>
   <time name="total">    1.20    1.21</time>
   <energy>
    <i name="e_fr_energy">   -177.60377455 </i>
    <i name="e_wo_entrp">   -177.53489069 </i>
    <i name="e_0_energy">   -177.58081326 </i>
   </energy>
  </scstep>
  <scstep>
   <time name="diag">    0.31    0.31</time>
   <time name="diis">    0.72    0.73</time>
   <time name="orth">    0.09    0.09</time>
   <time name="total">    1.19    1.20</time>
   <energy>
    <i name="e_fr_energy">   -177.60208862 </i>
    <i name="e_wo_entrp">   -177.53295894 </i>
    <i name="e_0_energy">   -177.57904539 </i>
   </energy>
  </scstep>
  <scstep>
   <time name="diag">    0.31    0.31</time>
   <time name="diis">    0.75    0.75</time>
   <time name="orth">    0.09    0.09</time>
   <time name="total">    1.21    1.22</time>
   <energy>
    <i name="e_fr_energy">   -177.60202552 </i>
    <i name="e_wo_entrp">   -177.53292444 </i>
    <i name="e_0_energy">   -177.57899183 </i>
   </energy>
  </scstep>
  <scstep>
   <time name="diag">    0.31    0.31</time>
   <time name="diis">    0.72    0.73</time>
   <time name="orth">    0.09    0.09</time>
   <time name="total">    1.19    1.19</time>
   <energy>
    <i name="e_fr_energy">   -177.60245314 </i>
    <i name="e_wo_entrp">   -177.53347901 </i>
    <i name="e_0_energy">   -177.57946176 </i>
   </energy>
  </scstep>
  <scstep>
   <time name="diag">    0.31    0.31</time>
   <time name="diis">    0.72    0.73</time>
   <time name="orth">    0.09    0.09</time>
   <time name="total">    1.19    1.20</time>
   <energy>
    <i name="e_fr_energy">   -177.60317314 </i>
    <i name="e_wo_entrp">   -177.53427904 </i>
    <i name="e_0_energy">   -177.58020844 </i>
   </energy>
  </scstep>
  <scstep>
   <time name="diag">    0.31    0.31</time>
   <time name="diis">    0.72    0.73</time>
   <time name="orth">    0.09    0.09</time>
   <time name="total">    1.19    1.20</time>
   <energy>
    <i name="e_fr_energy">   -177.60372802 </i>
    <i name="e_wo_entrp">   -177.53475206 </i>
    <i name="e_0_energy">   -177.58073603 </i>
   </energy>
  </scstep>
  <scstep>
   <time name="diag">    0.31    0.31</time>
   <time name="diis">    0.71    0.72</time>
   <time name="orth">    0.09    0.09</time>
   <time name="total">    1.18    1.18</time>
   <energy>
    <i name="e_fr_energy">   -177.60424867 </i>
    <i name="e_wo_entrp">   -177.53525133 </i>
    <i name="e_0_energy">   -177.58124956 </i>
   </energy>
  </scstep>
  <scstep>
   <time name="diag">    0.31    0.31</time>
   <time name="diis">    0.68    0.69</time>
   <time name="orth">    0.09    0.09</time>
   <time name="total">    1.15    1.16</time>
   <energy>
    <i name="e_fr_energy">   -177.60470971 </i>
    <i name="e_wo_entrp">   -177.53570434 </i>
    <i name="e_0_energy">   -177.58170792 </i>
   </energy>
  </scstep>
  <scstep>
   <time name="diag">    0.31    0.31</time>
   <time name="diis">    0.61    0.61</time>
   <time name="orth">    0.09    0.09</time>
   <time name="total">    1.07    1.08</time>
   <energy>
    <i name="e_fr_energy">   -177.60510983 </i>
    <i name="e_wo_entrp">   -177.53607102 </i>
    <i name="e_0_energy">   -177.58209690 </i>
   </energy>
  </scstep>
  <scstep>
   <time name="diag">    0.31    0.31</time>
   <time name="diis">    0.46    0.46</time>
   <time name="orth">    0.09    0.09</time>
   <time name="total">    0.92    0.93</time>
   <energy>
    <i name="e_fr_energy">   -177.60531032 </i>
    <i name="e_wo_entrp">   -177.53629270 </i>
    <i name="e_0_energy">   -177.58230445 </i>
   </energy>
  </scstep>
  <scstep>
   <time name="diag">    0.31    0.31</time>
   <time name="diis">    0.47    0.48</time>
   <time name="orth">    0.09    0.09</time>
   <time name="total">    0.94    0.94</time>
   <energy>
    <i name="e_fr_energy">   -177.60559369 </i>
    <i name="e_wo_entrp">   -177.53658775 </i>
    <i name="e_0_energy">   -177.58259171 </i>
   </energy>
  </scstep>
  <scstep>
   <time name="diag">    0.31    0.31</time>
   <time name="diis">    0.46    0.46</time>
   <time name="orth">    0.09    0.09</time>
   <time name="total">    0.92    0.94</time>
   <energy>
    <i name="e_fr_energy">   -177.60573110 </i>
    <i name="e_wo_entrp">   -177.53674275 </i>
    <i name="e_0_energy">   -177.58273499 </i>
   </energy>
  </scstep>
  <scstep>
   <time name="diag">    0.31    0.31</time>
   <time name="diis">    0.45    0.45</time>
   <time name="orth">    0.09    0.09</time>
   <time name="total">    0.91    0.92</time>
   <energy>
    <i name="e_fr_energy">   -177.60576007 </i>
    <i name="e_wo_entrp">   -177.53676667 </i>
    <i name="e_0_energy">   -177.58276227 </i>
   </energy>
  </scstep>
  <scstep>
   <time name="diag">    0.31    0.31</time>
   <time name="diis">    0.46    0.46</time>
   <time name="orth">    0.09    0.09</time>
   <time name="total">    0.92    0.93</time>
   <energy>
    <i name="e_fr_energy">   -177.60583254 </i>
    <i name="e_wo_entrp">   -177.53682961 </i>
    <i name="e_0_energy">   -177.58283156 </i>
   </energy>
  </scstep>
  <scstep>
   <time name="diag">    0.31    0.31</time>
   <time name="diis">    0.44    0.44</time>
   <time name="orth">    0.09    0.09</time>
   <time name="total">    0.90    0.91</time>
   <energy>
    <i name="e_fr_energy">   -177.60584785 </i>
    <i name="e_wo_entrp">   -177.53684530 </i>
    <i name="e_0_energy">   -177.58284700 </i>
   </energy>
  </scstep>
  <scstep>
   <time name="diag">    0.31    0.31</time>
   <time name="diis">    0.43    0.43</time>
   <time name="orth">    0.09    0.09</time>
   <time name="total">    0.84    0.84</time>
   <energy>
    <i name="alphaZ">   1044.42981019 </i>
    <i name="ewald"> 153501.97003816 </i>
    <i name="hartreedc">-216967.76787442 </i>
    <i name="XCdc">   2162.31690689 </i>
    <i name="pawpsdc">  63307.09547811 </i>
    <i name="pawaedc"> -68482.35213797 </i>
    <i name="eentropy">     -0.06899972 </i>
    <i name="bandstr">  -1799.61095585 </i>
    <i name="atom">  67056.38188117 </i>
    <i name="e_fr_energy">   -177.60585345 </i>
    <i name="e_wo_entrp">   -177.53685373 </i>
    <i name="e_0_energy">   -177.58285354 </i>
   </energy>
  </scstep>
  <structure>
   <crystal>
    <varray name="basis" >
     <v>      10.11850195       0.00000000       0.00000000 </v>
     <v>      -5.05925097       8.76287974       0.00000000 </v>
     <v>       0.00000000       0.00000000      18.58887505 </v>
    </varray>
    <i name="volume">   1648.22379336 </i>
    <varray name="rec_basis" >
     <v>       0.09882886       0.05705887      -0.00000000 </v>
     <v>       0.00000000       0.11411774      -0.00000000 </v>
     <v>       0.00000000       0.00000000       0.05379562 </v>
    </varray>
   </crystal>
   <varray name="positions" >
    <v>       0.99895999       0.00227913       0.61194661 </v>
    <v>       0.00035605       0.25069285       0.61520217 </v>
    <v>       0.99122698       0.49622431       0.60978119 </v>
    <v>       0.99601494       0.74998253       0.61129381 </v>
    <v>       0.24412919       0.00583454       0.61765191 </v>
    <v>       0.25063443       0.25247159       0.61191696 </v>
    <v>       0.25490390       0.49620421       0.60980535 </v>
    <v>       0.25220411       0.75440494       0.60777348 </v>
    <v>       0.51173854       0.00583831       0.61761219 </v>
    <v>       0.50348135       0.25663123       0.61152381 </v>
    <v>       0.50153166       0.50153566       0.61323699 </v>
    <v>       0.50392419       0.74997502       0.61129910 </v>
    <v>       0.75332191       0.00231454       0.61194531 </v>
    <v>       0.75184164       0.25248356       0.61191434 </v>
    <v>       0.74997083       0.50151361       0.61323481 </v>
    <v>       0.75054999       0.75120694       0.61330030 </v>
    <v>       0.08332860       0.16668598       0.38888246 </v>
    <v>       0.08331514       0.41662990       0.38880445 </v>
    <v>       0.08329656       0.66668218       0.38877180 </v>
    <v>       0.08330462       0.91671532       0.38881953 </v>
    <v>       0.33332178       0.16673118       0.38887295 </v>
    <v>       0.33335814       0.41664609       0.38882354 </v>
    <v>       0.33338544       0.66668208       0.38877176 </v>
    <v>       0.33337433       0.91674882       0.38878326 </v>
    <v>       0.58340958       0.16673046       0.38887277 </v>
    <v>       0.58335647       0.41667189       0.38886969 </v>
    <v>       0.58338708       0.66668638       0.38882951 </v>
    <v>       0.58341121       0.91671535       0.38881939 </v>
    <v>       0.83335780       0.16668569       0.38888239 </v>
    <v>       0.83328938       0.41664654       0.38882351 </v>
    <v>       0.83329862       0.66668629       0.38883031 </v>
    <v>       0.83338123       0.91674161       0.38888554 </v>
    <v>       0.16661308       0.08355310       0.49996450 </v>
    <v>       0.16654186       0.33305635       0.49974738 </v>
    <v>       0.16666182       0.58332179       0.49944690 </v>
    <v>       0.16639967       0.83372620       0.49947210 </v>
    <v>       0.41681133       0.08362245       0.49982840 </v>
    <v>       0.41666252       0.33333757       0.49997636 </v>
    <v>       0.41711941       0.58348478       0.49964770 </v>
    <v>       0.41732591       0.83372593       0.49947213 </v>
    <v>       0.66694174       0.08355250       0.49996383 </v>
    <v>       0.66667955       0.33334117       0.49997378 </v>
    <v>       0.66664377       0.58336190       0.49992685 </v>
    <v>       0.66687610       0.83344421       0.49990338 </v>
    <v>       0.91672470       0.08344133       0.50002420 </v>
    <v>       0.91651580       0.33305636       0.49974707 </v>
    <v>       0.91636196       0.58348581       0.49964693 </v>
    <v>       0.91656565       0.83344218       0.49990356 </v>
    <v>       0.34642013       0.94271117       0.68215124 </v>
    <v>       0.36319937       0.97611362       0.73476667 </v>
    <v>       0.15801651       0.56627006       0.70590206 </v>
   </varray>
  </structure>
  <varray name="forces" >
   <v>      -0.02650609      -0.00133781       0.02874604 </v>
   <v>      -0.00077465       0.00670861      -0.10069584 </v>
   <v>       0.87850365       0.46280215       0.87791926 </v>
   <v>       0.00411909       0.01325502       0.01123558 </v>
   <v>       0.09187235       0.00416896       0.12826757 </v>
   <v>      -0.00799932      -0.07535976       0.00144682 </v>
   <v>      -0.87412415       0.46268496       0.87458950 </v>
   <v>      -0.00069903      -0.31336783       1.57860729 </v>
   <v>      -0.09125455       0.00263752       0.12857162 </v>
   <v>      -0.01111705      -0.18041909       0.13453259 </v>
   <v>       0.11761524      -0.00473377      -0.01623761 </v>
   <v>      -0.00464156       0.01286663       0.01092259 </v>
   <v>       0.02821047      -0.00241323       0.02850079 </v>
   <v>       0.01455095      -0.07598460       0.00194146 </v>
   <v>      -0.11804268       0.00117191      -0.01629710 </v>
   <v>       0.00272308       0.00580462       0.01027468 </v>
   <v>       0.00572838      -0.01406211      -0.15627395 </v>
   <v>       0.00004715      -0.03435026      -0.15466744 </v>
   <v>      -0.00927703      -0.02484127      -0.22806990 </v>
   <v>      -0.01504711       0.06126375      -0.19870227 </v>
   <v>      -0.03787939      -0.00566973      -0.16480097 </v>
   <v>       0.02643186      -0.00968311      -0.16800524 </v>
   <v>       0.00950787      -0.02481984      -0.22798867 </v>
   <v>       0.00001671       0.01353553      -0.22332893 </v>
   <v>       0.03800452      -0.00606466      -0.16489251 </v>
   <v>      -0.00128389       0.03281843      -0.15673075 </v>
   <v>       0.05403322      -0.00730648      -0.14489672 </v>
   <v>       0.01536506       0.06129494      -0.19879583 </v>
   <v>      -0.00559318      -0.01418119      -0.15631623 </v>
   <v>      -0.02539964      -0.00960707      -0.16813657 </v>
   <v>      -0.05394136      -0.00736617      -0.14451919 </v>
   <v>      -0.00053853      -0.02740748      -0.13579300 </v>
   <v>       0.14923834      -0.11835303       0.24195875 </v>
   <v>      -0.10581419       0.00189947       0.06804021 </v>
   <v>      -0.00015285       0.13527032       0.07945395 </v>
   <v>      -0.04348414       0.06090359       0.07763646 </v>
   <v>      -0.00030117      -0.05315704       0.21663645 </v>
   <v>      -0.00043281      -0.01615066       0.10577777 </v>
   <v>      -0.05288830       0.03143712       0.09662997 </v>
   <v>       0.04333883       0.06058906       0.07688767 </v>
   <v>      -0.14871345      -0.11795802       0.24049787 </v>
   <v>       0.00115383      -0.01493375       0.10304056 </v>
   <v>       0.00240687       0.03812740       0.14936626 </v>
   <v>       0.03065733       0.03355077       0.12499420 </v>
   <v>      -0.00027330       0.04871394       0.08279825 </v>
   <v>       0.10595991       0.00140662       0.06731696 </v>
   <v>       0.05044065       0.03190895       0.09501672 </v>
   <v>      -0.03140131       0.03274726       0.12521332 </v>
   <v>      -0.00191822       0.04111923      -1.26636974 </v>
   <v>      -0.00060225      -0.33156813       0.19841111 </v>
   <v>       0.00017581      -0.16759066      -1.77371380 </v>
  </varray>
  <varray name="stress" >
   <v>       4.03671382      -0.00377362      -0.00302032 </v>
   <v>      -0.00377340       1.22577537      -1.22428742 </v>
   <v>      -0.00302031      -1.22428740       1.92604567 </v>
  </varray>
  <energy>
   <i name="e_fr_energy">   -177.60585345 </i>
   <i name="e_wo_entrp">   -177.53685373 </i>
   <i name="e_0_energy">   -177.58285354 </i>
  </energy>
  <time name="totalsc">   50.27   50.94</time>
 </calculation>
 <calculation>
  <scstep>
   <time name="dav">    1.92    1.95</time>
   <time name="total">    1.98    2.01</time>
   <energy>
    <i name="alphaZ">   1044.42981019 </i>
    <i name="ewald"> 153502.34801388 </i>
    <i name="hartreedc">-216968.14834735 </i>
    <i name="XCdc">   2162.31783599 </i>
    <i name="pawpsdc">  63307.10380869 </i>
    <i name="pawaedc"> -68482.36310585 </i>
    <i name="eentropy">     -0.06885021 </i>
    <i name="bandstr">  -1799.60359802 </i>
    <i name="atom">  67056.38188117 </i>
    <i name="e_fr_energy">   -177.60255153 </i>
    <i name="e_wo_entrp">   -177.53370131 </i>
    <i name="e_0_energy">   -177.57960146 </i>
   </energy>
  </scstep>
  <scstep>
   <time name="diag">    0.31    0.31</time>
   <time name="diis">    0.71    0.72</time>
   <time name="orth">    0.09    0.09</time>
   <time name="total">    1.17    1.18</time>
   <energy>
    <i name="e_fr_energy">   -177.60391781 </i>
    <i name="e_wo_entrp">   -177.53506561 </i>
    <i name="e_0_energy">   -177.58096708 </i>
   </energy>
  </scstep>
  <scstep>
   <time name="diag">    0.31    0.31</time>
   <time name="diis">    0.98    0.99</time>
   <time name="orth">    0.09    0.09</time>
   <time name="total">    1.44    1.46</time>
   <energy>
    <i name="e_fr_energy">   -177.60462211 </i>
    <i name="e_wo_entrp">   -177.53574930 </i>
    <i name="e_0_energy">   -177.58166450 </i>
   </energy>
  </scstep>
  <scstep>
   <time name="diag">    0.30    0.31</time>
   <time name="diis">    0.73    0.74</time>
   <time name="orth">    0.09    0.09</time>
   <time name="total">    1.19    1.20</time>
   <energy>
    <i name="e_fr_energy">   -177.60460566 </i>
    <i name="e_wo_entrp">   -177.53573815 </i>
    <i name="e_0_energy">   -177.58164983 </i>
   </energy>
  </scstep>
  <scstep>
   <time name="diag">    0.31    0.31</time>
   <time name="diis">    0.62    0.62</time>
   <time name="orth">    0.09    0.09</time>
   <time name="total">    1.08    1.09</time>
   <energy>
    <i name="e_fr_energy">   -177.60457278 </i>
    <i name="e_wo_entrp">   -177.53572768 </i>
    <i name="e_0_energy">   -177.58162441 </i>
   </energy>
  </scstep>
  <scstep>
   <time name="diag">    0.31    0.31</time>
   <time name="diis">    0.76    0.77</time>
   <time name="orth">    0.09    0.09</time>
   <time name="total">    1.22    1.23</time>
   <energy>
    <i name="e_fr_energy">   -177.60455286 </i>
    <i name="e_wo_entrp">   -177.53570730 </i>
    <i name="e_0_energy">   -177.58160434 </i>
   </energy>
  </scstep>
  <scstep>
   <time name="diag">    0.31    0.31</time>
   <time name="diis">    0.53    0.54</time>
   <time name="orth">    0.09    0.09</time>
   <time name="total">    0.94    0.95</time>
   <energy>
    <i name="alphaZ">   1044.42981019 </i>
    <i name="ewald"> 153502.34801388 </i>
    <i name="hartreedc">-216968.16415320 </i>
    <i name="XCdc">   2162.31854391 </i>
    <i name="pawpsdc">  63307.13017534 </i>
    <i name="pawaedc"> -68482.39961363 </i>
    <i name="eentropy">     -0.06884775 </i>
    <i name="bandstr">  -1799.58036060 </i>
    <i name="atom">  67056.38188117 </i>
    <i name="e_fr_energy">   -177.60455069 </i>
    <i name="e_wo_entrp">   -177.53570294 </i>
    <i name="e_0_energy">   -177.58160144 </i>
   </energy>
  </scstep>
  <structure>
   <crystal>
    <varray name="basis" >
     <v>      10.11850195       0.00000000       0.00000000 </v>
     <v>      -5.05925097       8.76287974       0.00000000 </v>
     <v>       0.00000000       0.00000000      18.58887505 </v>
    </varray>
    <i name="volume">   1648.22379336 </i>
    <varray name="rec_basis" >
     <v>       0.09882886       0.05705887      -0.00000000 </v>
     <v>       0.00000000       0.11411774      -0.00000000 </v>
     <v>       0.00000000       0.00000000       0.05379562 </v>
    </varray>
   </crystal>
   <varray name="positions" >
    <v>       1.00044242       0.00227913       0.61194661 </v>
    <v>       0.00035605       0.25069285       0.61520217 </v>
    <v>       0.99122698       0.49622431       0.60978119 </v>
    <v>       0.99601494       0.74998253       0.61129381 </v>
    <v>       0.24412919       0.00583454       0.61765191 </v>
    <v>       0.25063443       0.25247159       0.61191696 </v>
    <v>       0.25490390       0.49620421       0.60980535 </v>
    <v>       0.25220411       0.75440494       0.60777348 </v>
    <v>       0.51173854       0.00583831       0.61761219 </v>
    <v>       0.50348135       0.25663123       0.61152381 </v>
    <v>       0.50153166       0.50153566       0.61323699 </v>
    <v>       0.50392419       0.74997502       0.61129910 </v>
    <v>       0.75332191       0.00231454       0.61194531 </v>
    <v>       0.75184164       0.25248356       0.61191434 </v>
    <v>       0.74997083       0.50151361       0.61323481 </v>
    <v>       0.75054999       0.75120694       0.61330030 </v>
    <v>       0.08332860       0.16668598       0.38888246 </v>
    <v>       0.08331514       0.41662990       0.38880445 </v>
    <v>       0.08329656       0.66668218       0.38877180 </v>
    <v>       0.08330462       0.91671532       0.38881953 </v>
    <v>       0.33332178       0.16673118       0.38887295 </v>
    <v>       0.33335814       0.41664609       0.38882354 </v>
    <v>       0.33338544       0.66668208       0.38877176 </v>
    <v>       0.33337433       0.91674882       0.38878326 </v>
    <v>       0.58340958       0.16673046       0.38887277 </v>
    <v>       0.58335647       0.41667189       0.38886969 </v>
    <v>       0.58338708       0.66668638       0.38882951 </v>
    <v>       0.58341121       0.91671535       0.38881939 </v>
    <v>       0.83335780       0.16668569       0.38888239 </v>
    <v>       0.83328938       0.41664654       0.38882351 </v>
    <v>       0.83329862       0.66668629       0.38883031 </v>
    <v>       0.83338123       0.91674161       0.38888554 </v>
    <v>       0.16661308       0.08355310       0.49996450 </v>
    <v>       0.16654186       0.33305635       0.49974738 </v>
    <v>       0.16666182       0.58332179       0.49944690 </v>
    <v>       0.16639967       0.83372620       0.49947210 </v>
    <v>       0.41681133       0.08362245       0.49982840 </v>
    <v>       0.41666252       0.33333757       0.49997636 </v>
    <v>       0.41711941       0.58348478       0.49964770 </v>
    <v>       0.41732591       0.83372593       0.49947213 </v>
    <v>       0.66694174       0.08355250       0.49996383 </v>
    <v>       0.66667955       0.33334117       0.49997378 </v>
    <v>       0.66664377       0.58336190       0.49992685 </v>
    <v>       0.66687610       0.83344421       0.49990338 </v>
    <v>       0.91672470       0.08344133       0.50002420 </v>
    <v>       0.91651580       0.33305636       0.49974707 </v>
    <v>       0.91636196       0.58348581       0.49964693 </v>
    <v>       0.91656565       0.83344218       0.49990356 </v>
    <v>       0.34642013       0.94271117       0.68215124 </v>
    <v>       0.36319937       0.97611362       0.73476667 </v>
    <v>       0.15801651       0.56627006       0.70590206 </v>
   </varray>
  </structure>
  <varray name="forces" >
   <v>      -0.16152305       0.00009154       0.02317787 </v>
   <v>       0.00651937      -0.00737242      -0.10192230 </v>
   <v>       0.87895464       0.46194540       0.87823167 </v>
   <v>       0.01066507      -0.00003486       0.01227503 </v>
   <v>       0.13412943       0.00464797       0.13464199 </v>
   <v>      -0.00110024      -0.06263313       0.00328519 </v>
   <v>      -0.87365698       0.46250812       0.87464495 </v>
   <v>       0.00045836      -0.31399122       1.57865024 </v>
   <v>      -0.09077408       0.00249288       0.12851397 </v>
   <v>      -0.00993268      -0.17954474       0.13430925 </v>
   <v>       0.11821986      -0.00401364      -0.01628934 </v>
   <v>      -0.00320803       0.01335563       0.01119287 </v>
   <v>       0.06319257      -0.00290099       0.02685557 </v>
   <v>       0.01589979      -0.07620176       0.00194446 </v>
   <v>      -0.11774504       0.00101104      -0.01627581 </v>
   <v>       0.00970051       0.01847078       0.00924727 </v>
   <v>       0.00536193      -0.01402211      -0.15635684 </v>
   <v>      -0.00005569      -0.03388600      -0.15467035 </v>
   <v>      -0.00939639      -0.02444909      -0.22821983 </v>
   <v>      -0.01496494       0.06136371      -0.19855914 </v>
   <v>      -0.03766255      -0.00538072      -0.16453786 </v>
   <v>       0.02628752      -0.01013720      -0.16819794 </v>
   <v>       0.01105464      -0.02481219      -0.22802079 </v>
   <v>      -0.00055792       0.01347011      -0.22341131 </v>
   <v>       0.03869577      -0.00633334      -0.16492247 </v>
   <v>      -0.00099806       0.03296746      -0.15718506 </v>
   <v>       0.05429781      -0.00762163      -0.14497150 </v>
   <v>       0.01465481       0.06166622      -0.19862059 </v>
   <v>      -0.00518224      -0.01428341      -0.15634772 </v>
   <v>      -0.02498087      -0.00948087      -0.16789151 </v>
   <v>      -0.05450568      -0.00736175      -0.14435918 </v>
   <v>       0.00003750      -0.02740461      -0.13602989 </v>
   <v>       0.15541959      -0.11442085       0.22932291 </v>
   <v>      -0.10481790       0.00206920       0.06787839 </v>
   <v>       0.00015605       0.13469264       0.07989612 </v>
   <v>      -0.04231411       0.06021582       0.07639936 </v>
   <v>       0.00089552      -0.05322303       0.21597414 </v>
   <v>      -0.00004647      -0.01557414       0.10529483 </v>
   <v>      -0.05257862       0.03206143       0.09642122 </v>
   <v>       0.04439713       0.06052996       0.07686629 </v>
   <v>      -0.14811597      -0.11765795       0.24086528 </v>
   <v>       0.00085732      -0.01510789       0.10342119 </v>
   <v>       0.00280531       0.03831905       0.14956694 </v>
   <v>       0.03166747       0.03404129       0.12636109 </v>
   <v>       0.00493695       0.04511888       0.09560592 </v>
   <v>       0.10570511       0.00105775       0.06784312 </v>
   <v>       0.05056910       0.03144492       0.09493538 </v>
   <v>      -0.03307637       0.03268783       0.12509959 </v>
   <v>       0.00120032       0.04036371      -1.26623256 </v>
   <v>       0.00008879      -0.33115978       0.19782282 </v>
   <v>       0.00036561      -0.16758406      -1.77352294 </v>
  </varray>
  <varray name="stress" >
   <v>       3.78106942      -0.00498200      -0.01194609 </v>
   <v>      -0.00498171       0.94594270      -1.22795322 </v>
   <v>      -0.01194611      -1.22795317       1.65098702 </v>
  </varray>
  <energy>
   <i name="e_fr_energy">   -177.60455069 </i>
   <i name="e_wo_entrp">   -177.53570294 </i>
   <i name="e_0_energy">   -177.58160144 </i>
  </energy>
  <time name="totalsc">   10.27   10.47</time>
 </calculation>
 <calculation>
  <scstep>
   <time name="dav">    1.89    1.90</time>
   <time name="total">    1.95    1.97</time>
   <energy>
    <i name="alphaZ">   1044.42981019 </i>
    <i name="ewald"> 153502.09588468 </i>
    <i name="hartreedc">-216967.88816253 </i>
    <i name="XCdc">   2162.31843520 </i>
    <i name="pawpsdc">  63307.09517675 </i>
    <i name="pawaedc"> -68482.35402862 </i>
    <i name="eentropy">     -0.06898558 </i>
    <i name="bandstr">  -1799.61103406 </i>
    <i name="atom">  67056.38188117 </i>
    <i name="e_fr_energy">   -177.60102281 </i>
    <i name="e_wo_entrp">   -177.53203722 </i>
    <i name="e_0_energy">   -177.57802761 </i>
   </energy>
  </scstep>
  <scstep>
   <time name="diag">    0.31    0.31</time>
   <time name="diis">    0.72    0.72</time>
   <time name="orth">    0.09    0.09</time>
   <time name="total">    1.18    1.19</time>
   <energy>
    <i name="e_fr_energy">   -177.60384369 </i>
    <i name="e_wo_entrp">   -177.53492750 </i>
    <i name="e_0_energy">   -177.58087163 </i>
   </energy>
  </scstep>
  <scstep>
   <time name="diag">    0.31    0.32</time>
   <time name="diis">    0.98    0.99</time>
   <time name="orth">    0.09    0.09</time>
   <time name="total">    1.45    1.46</time>
   <energy>
    <i name="e_fr_energy">   -177.60527522 </i>
    <i name="e_wo_entrp">   -177.53631715 </i>
    <i name="e_0_energy">   -177.58228920 </i>
   </energy>
  </scstep>
  <scstep>
   <time name="diag">    0.31    0.31</time>
   <time name="diis">    0.73    0.73</time>
   <time name="orth">    0.09    0.09</time>
   <time name="total">    1.19    1.20</time>
   <energy>
    <i name="e_fr_energy">   -177.60524640 </i>
    <i name="e_wo_entrp">   -177.53628215 </i>
    <i name="e_0_energy">   -177.58225832 </i>
   </energy>
  </scstep>
  <scstep>
   <time name="diag">    0.31    0.31</time>
   <time name="diis">    0.70    0.70</time>
   <time name="orth">    0.09    0.09</time>
   <time name="total">    1.16    1.17</time>
   <energy>
    <i name="e_fr_energy">   -177.60518083 </i>
    <i name="e_wo_entrp">   -177.53621781 </i>
    <i name="e_0_energy">   -177.58219315 </i>
   </energy>
  </scstep>
  <scstep>
   <time name="diag">    0.31    0.31</time>
   <time name="diis">    0.79    0.80</time>
   <time name="orth">    0.09    0.09</time>
   <time name="total">    1.25    1.26</time>
   <energy>
    <i name="e_fr_energy">   -177.60511725 </i>
    <i name="e_wo_entrp">   -177.53612691 </i>
    <i name="e_0_energy">   -177.58212047 </i>
   </energy>
  </scstep>
  <scstep>
   <time name="diag">    0.31    0.31</time>
   <time name="diis">    0.66    0.66</time>
   <time name="orth">    0.09    0.09</time>
   <time name="total">    1.07    1.08</time>
   <energy>
    <i name="alphaZ">   1044.42981019 </i>
    <i name="ewald"> 153502.09588468 </i>
    <i name="hartreedc">-216967.94400317 </i>
    <i name="XCdc">   2162.31993461 </i>
    <i name="pawpsdc">  63307.23451851 </i>
    <i name="pawaedc"> -68482.49937914 </i>
    <i name="eentropy">     -0.06898288 </i>
    <i name="bandstr">  -1799.55477630 </i>
    <i name="atom">  67056.38188117 </i>
    <i name="e_fr_energy">   -177.60511234 </i>
    <i name="e_wo_entrp">   -177.53612946 </i>
    <i name="e_0_energy">   -177.58211804 </i>
   </energy>
  </scstep>
  <structure>
   <crystal>
    <varray name="basis" >
     <v>      10.11850195       0.00000000       0.00000000 </v>
     <v>      -5.05925097       8.76287974       0.00000000 </v>
     <v>       0.00000000       0.00000000      18.58887505 </v>
    </varray>
    <i name="volume">   1648.22379336 </i>
    <varray name="rec_basis" >
     <v>       0.09882886       0.05705887      -0.00000000 </v>
     <v>       0.00000000       0.11411774      -0.00000000 </v>
     <v>       0.00000000       0.00000000       0.05379562 </v>
    </varray>
   </crystal>
   <varray name="positions" >
    <v>       0.99981587       0.00399089       0.61194661 </v>
    <v>       0.00035605       0.25069285       0.61520217 </v>
    <v>       0.99122698       0.49622431       0.60978119 </v>
    <v>       0.99601494       0.74998253       0.61129381 </v>
    <v>       0.24412919       0.00583454       0.61765191 </v>
    <v>       0.25063443       0.25247159       0.61191696 </v>
    <v>       0.25490390       0.49620421       0.60980535 </v>
    <v>       0.25220411       0.75440494       0.60777348 </v>
    <v>       0.51173854       0.00583831       0.61761219 </v>
    <v>       0.50348135       0.25663123       0.61152381 </v>
    <v>       0.50153166       0.50153566       0.61323699 </v>
    <v>       0.50392419       0.74997502       0.61129910 </v>
    <v>       0.75332191       0.00231454       0.61194531 </v>
    <v>       0.75184164       0.25248356       0.61191434 </v>
    <v>       0.74997083       0.50151361       0.61323481 </v>
    <v>       0.75054999       0.75120694       0.61330030 </v>
    <v>       0.08332860       0.16668598       0.38888246 </v>
    <v>       0.08331514       0.41662990       0.38880445 </v>
    <v>       0.08329656       0.66668218       0.38877180 </v>
    <v>       0.08330462       0.91671532       0.38881953 </v>
    <v>       0.33332178       0.16673118       0.38887295 </v>
    <v>       0.33335814       0.41664609       0.38882354 </v>
    <v>       0.33338544       0.66668208       0.38877176 </v>
    <v>       0.33337433       0.91674882       0.38878326 </v>
    <v>       0.58340958       0.16673046       0.38887277 </v>
    <v>       0.58335647       0.41667189       0.38886969 </v>
    <v>       0.58338708       0.66668638       0.38882951 </v>
    <v>       0.58341121       0.91671535       0.38881939 </v>
    <v>       0.83335780       0.16668569       0.38888239 </v>
    <v>       0.83328938       0.41664654       0.38882351 </v>
    <v>       0.83329862       0.66668629       0.38883031 </v>
    <v>       0.83338123       0.91674161       0.38888554 </v>
    <v>       0.16661308       0.08355310       0.49996450 </v>
    <v>       0.16654186       0.33305635       0.49974738 </v>
    <v>       0.16666182       0.58332179       0.49944690 </v>
    <v>       0.16639967       0.83372620       0.49947210 </v>
    <v>       0.41681133       0.08362245       0.49982840 </v>
    <v>       0.41666252       0.33333757       0.49997636 </v>
    <v>       0.41711941       0.58348478       0.49964770 </v>
    <v>       0.41732591       0.83372593       0.49947213 </v>
    <v>       0.66694174       0.08355250       0.49996383 </v>
    <v>       0.66667955       0.33334117       0.49997378 </v>
    <v>       0.66664377       0.58336190       0.49992685 </v>
    <v>       0.66687610       0.83344421       0.49990338 </v>
    <v>       0.91672470       0.08344133       0.50002420 </v>
    <v>       0.91651580       0.33305636       0.49974707 </v>
    <v>       0.91636196       0.58348581       0.49964693 </v>
    <v>       0.91656565       0.83344218       0.49990356 </v>
    <v>       0.34642013       0.94271117       0.68215124 </v>
    <v>       0.36319937       0.97611362       0.73476667 </v>
    <v>       0.15801651       0.56627006       0.70590206 </v>
   </varray>
  </structure>
  <varray name="forces" >
   <v>      -0.01138259      -0.11279097       0.02996213 </v>
   <v>      -0.01648061       0.03222157      -0.09737102 </v>
   <v>       0.87739241       0.46444615       0.87803886 </v>
   <v>      -0.00749518       0.03318017       0.00912535 </v>
   <v>       0.09270388       0.00399581       0.12903623 </v>
   <v>       0.00457935      -0.05414028       0.00398022 </v>
   <v>      -0.87466038       0.46403264       0.87477475 </v>
   <v>      -0.00181041      -0.31269165       1.57881307 </v>
   <v>      -0.09212673       0.00250505       0.12874129 </v>
   <v>      -0.01126799      -0.17997947       0.13473746 </v>
   <v>       0.11814024      -0.00349134      -0.01633437 </v>
   <v>      -0.00466580       0.01349192       0.01118078 </v>
   <v>       0.02799441      -0.00341025       0.02850162 </v>
   <v>       0.01350646      -0.07526916       0.00193715 </v>
   <v>      -0.11801223       0.00217672      -0.01632508 </v>
   <v>       0.01462705       0.02671516       0.00784534 </v>
   <v>       0.00547582      -0.01393040      -0.15627579 </v>
   <v>       0.00043720      -0.03494048      -0.15512627 </v>
   <v>      -0.00906121      -0.02521768      -0.22790534 </v>
   <v>      -0.01524468       0.06119492      -0.19873509 </v>
   <v>      -0.03793878      -0.00574923      -0.16462608 </v>
   <v>       0.02576139      -0.00995654      -0.16816411 </v>
   <v>       0.00925632      -0.02311201      -0.22812082 </v>
   <v>      -0.00039378       0.01374020      -0.22338813 </v>
   <v>       0.03762231      -0.00565631      -0.16522642 </v>
   <v>      -0.00140533       0.03313101      -0.15650045 </v>
   <v>       0.05366437      -0.00772430      -0.14463440 </v>
   <v>       0.01519960       0.06149834      -0.19875990 </v>
   <v>      -0.00588317      -0.01383933      -0.15631628 </v>
   <v>      -0.02585471      -0.00929993      -0.16786275 </v>
   <v>      -0.05414102      -0.00664795      -0.14445332 </v>
   <v>      -0.00073742      -0.02741635      -0.13603649 </v>
   <v>       0.15277111      -0.11754948       0.23502833 </v>
   <v>      -0.10612908       0.00371642       0.06624821 </v>
   <v>      -0.00119501       0.13594801       0.07989035 </v>
   <v>      -0.04405413       0.06223569       0.07827611 </v>
   <v>      -0.00058855      -0.05337375       0.21676077 </v>
   <v>      -0.00018266      -0.01546625       0.10527514 </v>
   <v>      -0.05224573       0.03229191       0.09694912 </v>
   <v>       0.04325928       0.06030694       0.07650687 </v>
   <v>      -0.14946703      -0.11811435       0.24050879 </v>
   <v>       0.00070519      -0.01481462       0.10301125 </v>
   <v>       0.00291112       0.03897288       0.15021959 </v>
   <v>       0.03080302       0.03465923       0.12567765 </v>
   <v>      -0.00477096       0.04897859       0.07485736 </v>
   <v>       0.10522416       0.00173227       0.06683887 </v>
   <v>       0.05003219       0.03221529       0.09558867 </v>
   <v>      -0.03135005       0.03909460       0.13788305 </v>
   <v>      -0.00261517       0.04111022      -1.26920620 </v>
   <v>      -0.00106043      -0.33131305       0.19878059 </v>
   <v>       0.00015392      -0.16769655      -1.77360666 </v>
  </varray>
  <varray name="stress" >
   <v>       3.77427538      -0.00685881      -0.00372515 </v>
   <v>      -0.00685857       0.96797657      -1.24168265 </v>
   <v>      -0.00372520      -1.24168264       1.66112938 </v>
  </varray>
  <energy>
   <i name="e_fr_energy">   -177.60511234 </i>
   <i name="e_wo_entrp">   -177.53612946 </i>
   <i name="e_0_energy">   -177.58211804 </i>
  </energy>
  <time name="totalsc">   10.48   10.67</time>
 </calculation>
 <calculation>
  <scstep>
   <time name="dav">    1.88    1.90</time>
   <time name="total">    1.94    1.97</time>
   <energy>
    <i name="alphaZ">   1044.42981019 </i>
    <i name="ewald"> 153463.46435150 </i>
    <i name="hartreedc">-216929.46847196 </i>
    <i name="XCdc">   2162.29776182 </i>
    <i name="pawpsdc">  63307.18507489 </i>
    <i name="pawaedc"> -68482.44093630 </i>
    <i name="eentropy">     -0.06885013 </i>
    <i name="bandstr">  -1799.38262979 </i>
    <i name="atom">  67056.38188117 </i>
    <i name="e_fr_energy">   -177.60200863 </i>
    <i name="e_wo_entrp">   -177.53315850 </i>
    <i name="e_0_energy">   -177.57905859 </i>
   </energy>
  </scstep>
  <scstep>
   <time name="diag">    0.31    0.31</time>
   <time name="diis">    0.71    0.72</time>
   <time name="orth">    0.09    0.09</time>
   <time name="total">    1.17    1.18</time>
   <energy>
    <i name="e_fr_energy">   -177.60465110 </i>
    <i name="e_wo_entrp">   -177.53575515 </i>
    <i name="e_0_energy">   -177.58168578 </i>
   </energy>
  </scstep>
  <scstep>
   <time name="diag">    0.31    0.31</time>
   <time name="diis">    1.00    1.00</time>
   <time name="orth">    0.09    0.09</time>
   <time name="total">    1.47    1.49</time>
   <energy>
    <i name="e_fr_energy">   -177.60601817 </i>
    <i name="e_wo_entrp">   -177.53711000 </i>
    <i name="e_0_energy">   -177.58304878 </i>
   </energy>
  </scstep>
  <scstep>
   <time name="diag">    0.31    0.31</time>
   <time name="diis">    0.90    0.91</time>
   <time name="orth">    0.09    0.09</time>
   <time name="total">    1.36    1.37</time>
   <energy>
    <i name="e_fr_energy">   -177.60595918 </i>
    <i name="e_wo_entrp">   -177.53705349 </i>
    <i name="e_0_energy">   -177.58299062 </i>
   </energy>
  </scstep>
  <scstep>
   <time name="diag">    0.31    0.31</time>
   <time name="diis">    0.62    0.62</time>
   <time name="orth">    0.09    0.09</time>
   <time name="total">    1.08    1.09</time>
   <energy>
    <i name="e_fr_energy">   -177.60591407 </i>
    <i name="e_wo_entrp">   -177.53701494 </i>
    <i name="e_0_energy">   -177.58294769 </i>
   </energy>
  </scstep>
  <scstep>
   <time name="diag">    0.31    0.31</time>
   <time name="diis">    0.87    0.88</time>
   <time name="orth">    0.09    0.09</time>
   <time name="total">    1.33    1.34</time>
   <energy>
    <i name="e_fr_energy">   -177.60585749 </i>
    <i name="e_wo_entrp">   -177.53699103 </i>
    <i name="e_0_energy">   -177.58290200 </i>
   </energy>
  </scstep>
  <scstep>
   <time name="diag">    0.31    0.31</time>
   <time name="diis">    0.69    0.70</time>
   <time name="orth">    0.09    0.09</time>
   <time name="total">    1.15    1.16</time>
   <energy>
    <i name="e_fr_energy">   -177.60584374 </i>
    <i name="e_wo_entrp">   -177.53693785 </i>
    <i name="e_0_energy">   -177.58287511 </i>
   </energy>
  </scstep>
  <scstep>
   <time name="diag">    0.31    0.31</time>
   <time name="diis">    0.45    0.45</time>
   <time name="orth">    0.09    0.09</time>
   <time name="total">    0.86    0.86</time>
   <energy>
    <i name="alphaZ">   1044.42981019 </i>
    <i name="ewald"> 153463.46435150 </i>
    <i name="hartreedc">-216929.32179755 </i>
    <i name="XCdc">   2162.30126307 </i>
    <i name="pawpsdc">  63304.46422348 </i>
    <i name="pawaedc"> -68479.68391633 </i>
    <i name="eentropy">     -0.06889500 </i>
    <i name="bandstr">  -1799.57276091 </i>
    <i name="atom">  67056.38188117 </i>
    <i name="e_fr_energy">   -177.60584038 </i>
    <i name="e_wo_entrp">   -177.53694538 </i>
    <i name="e_0_energy">   -177.58287538 </i>
   </energy>
  </scstep>
  <structure>
   <crystal>
    <varray name="basis" >
     <v>      10.11850195       0.00000000       0.00000000 </v>
     <v>      -5.05925097       8.76287974       0.00000000 </v>
     <v>       0.00000000       0.00000000      18.58887505 </v>
    </varray>
    <i name="volume">   1648.22379336 </i>
    <varray name="rec_basis" >
     <v>       0.09882886       0.05705887      -0.00000000 </v>
     <v>       0.00000000       0.11411774      -0.00000000 </v>
     <v>       0.00000000       0.00000000       0.05379562 </v>
    </varray>
   </crystal>
   <varray name="positions" >
    <v>       0.99895999       0.00227913       0.61275354 </v>
    <v>       0.00035605       0.25069285       0.61520217 </v>
    <v>       0.99122698       0.49622431       0.60978119 </v>
    <v>       0.99601494       0.74998253       0.61129381 </v>
    <v>       0.24412919       0.00583454       0.61765191 </v>
    <v>       0.25063443       0.25247159       0.61191696 </v>
    <v>       0.25490390       0.49620421       0.60980535 </v>
    <v>       0.25220411       0.75440494       0.60777348 </v>
    <v>       0.51173854       0.00583831       0.61761219 </v>
    <v>       0.50348135       0.25663123       0.61152381 </v>
    <v>       0.50153166       0.50153566       0.61323699 </v>
    <v>       0.50392419       0.74997502       0.61129910 </v>
    <v>       0.75332191       0.00231454       0.61194531 </v>
    <v>       0.75184164       0.25248356       0.61191434 </v>
    <v>       0.74997083       0.50151361       0.61323481 </v>
    <v>       0.75054999       0.75120694       0.61330030 </v>
    <v>       0.08332860       0.16668598       0.38888246 </v>
    <v>       0.08331514       0.41662990       0.38880445 </v>
    <v>       0.08329656       0.66668218       0.38877180 </v>
    <v>       0.08330462       0.91671532       0.38881953 </v>
    <v>       0.33332178       0.16673118       0.38887295 </v>
    <v>       0.33335814       0.41664609       0.38882354 </v>
    <v>       0.33338544       0.66668208       0.38877176 </v>
    <v>       0.33337433       0.91674882       0.38878326 </v>
    <v>       0.58340958       0.16673046       0.38887277 </v>
    <v>       0.58335647       0.41667189       0.38886969 </v>
    <v>       0.58338708       0.66668638       0.38882951 </v>
    <v>       0.58341121       0.91671535       0.38881939 </v>
    <v>       0.83335780       0.16668569       0.38888239 </v>
    <v>       0.83328938       0.41664654       0.38882351 </v>
    <v>       0.83329862       0.66668629       0.38883031 </v>
    <v>       0.83338123       0.91674161       0.38888554 </v>
    <v>       0.16661308       0.08355310       0.49996450 </v>
    <v>       0.16654186       0.33305635       0.49974738 </v>
    <v>       0.16666182       0.58332179       0.49944690 </v>
    <v>       0.16639967       0.83372620       0.49947210 </v>
    <v>       0.41681133       0.08362245       0.49982840 </v>
    <v>       0.41666252       0.33333757       0.49997636 </v>
    <v>       0.41711941       0.58348478       0.49964770 </v>
    <v>       0.41732591       0.83372593       0.49947213 </v>
    <v>       0.66694174       0.08355250       0.49996383 </v>
    <v>       0.66667955       0.33334117       0.49997378 </v>
    <v>       0.66664377       0.58336190       0.49992685 </v>
    <v>       0.66687610       0.83344421       0.49990338 </v>
    <v>       0.91672470       0.08344133       0.50002420 </v>
    <v>       0.91651580       0.33305636       0.49974707 </v>
    <v>       0.91636196       0.58348581       0.49964693 </v>
    <v>       0.91656565       0.83344218       0.49990356 </v>
    <v>       0.34642013       0.94271117       0.68215124 </v>
    <v>       0.36319937       0.97611362       0.73476667 </v>
    <v>       0.15801651       0.56627006       0.70590206 </v>
   </varray>
  </structure>
  <varray name="forces" >
   <v>      -0.03272374       0.00035951      -0.03115886 </v>
   <v>       0.00029254       0.00589615      -0.09955740 </v>
   <v>       0.87828634       0.46253577       0.87750508 </v>
   <v>       0.00242065       0.01561411       0.01224656 </v>
   <v>       0.09275049       0.00486343       0.12698282 </v>
   <v>      -0.00875940      -0.07720431       0.00297936 </v>
   <v>      -0.87407382       0.46222920       0.87469101 </v>
   <v>      -0.00033493      -0.31350048       1.57827762 </v>
   <v>      -0.09194397       0.00271023       0.12827129 </v>
   <v>      -0.01076629      -0.18035353       0.13496555 </v>
   <v>       0.11754879      -0.00471260      -0.01648802 </v>
   <v>      -0.00401439       0.01261380       0.01080876 </v>
   <v>       0.02970798      -0.00270046       0.02986408 </v>
   <v>       0.01451852      -0.07547386       0.00208041 </v>
   <v>      -0.11809598       0.00074533      -0.01625898 </v>
   <v>       0.00392074       0.00717699       0.01158225 </v>
   <v>       0.00543614      -0.01428385      -0.15591270 </v>
   <v>      -0.00001362      -0.03466579      -0.15517574 </v>
   <v>      -0.00971221      -0.02458711      -0.22846382 </v>
   <v>      -0.01451546       0.06131838      -0.19859064 </v>
   <v>      -0.03791803      -0.00574436      -0.16551744 </v>
   <v>       0.02670902      -0.00955163      -0.16845732 </v>
   <v>       0.00973169      -0.02476852      -0.22714818 </v>
   <v>      -0.00005957       0.01378343      -0.22389282 </v>
   <v>       0.03796202      -0.00643902      -0.16453130 </v>
   <v>      -0.00140881       0.03296216      -0.15657814 </v>
   <v>       0.05431186      -0.00714123      -0.14545011 </v>
   <v>       0.01549794       0.06130906      -0.19938485 </v>
   <v>      -0.00548065      -0.01401450      -0.15708357 </v>
   <v>      -0.02510346      -0.00962176      -0.16787077 </v>
   <v>      -0.05441626      -0.00764696      -0.14501052 </v>
   <v>      -0.00020970      -0.02752394      -0.13538966 </v>
   <v>       0.13875136      -0.12416066       0.25978094 </v>
   <v>      -0.10613536       0.00233213       0.06799773 </v>
   <v>       0.00001219       0.13547501       0.07954758 </v>
   <v>      -0.04385763       0.06077458       0.07767521 </v>
   <v>      -0.00038534      -0.05365527       0.21714555 </v>
   <v>      -0.00074929      -0.01661374       0.10606599 </v>
   <v>      -0.05282933       0.03154807       0.09691260 </v>
   <v>       0.04319362       0.06048214       0.07674552 </v>
   <v>      -0.14799696      -0.11819858       0.24087930 </v>
   <v>       0.00140813      -0.01496263       0.10258429 </v>
   <v>       0.00253677       0.03889836       0.14982858 </v>
[...]
       <r>    4.4743    0.0000 </r>
       <r>    4.5442    0.0000 </r>
       <r>    4.5871    0.0000 </r>
       <r>    4.6402    0.0000 </r>
       <r>    4.6755    0.0000 </r>
       <r>    4.9544    0.0000 </r>
       <r>    4.9904    0.0000 </r>
       <r>    5.0354    0.0000 </r>
       <r>    5.1004    0.0000 </r>
       <r>    5.1144    0.0000 </r>
       <r>    5.1762    0.0000 </r>
       <r>    5.2195    0.0000 </r>
       <r>    5.3398    0.0000 </r>
       <r>    5.5406    0.0000 </r>
       <r>    5.6181    0.0000 </r>
       <r>    5.6314    0.0000 </r>
       <r>    5.7798    0.0000 </r>
       <r>    5.8353    0.0000 </r>
       <r>    5.8711    0.0000 </r>
       <r>    5.9205    0.0000 </r>
       <r>    5.9533    0.0000 </r>
       <r>    5.9550    0.0000 </r>
       <r>    5.9744    0.0000 </r>
      </set>
     </set>
    </set>
   </array>
  </eigenvalues>
  <separator name="orbital magnetization" >
   <v name="MAGDIPOLOUT">      0.00000000      0.00000000      0.00000000</v>
  </separator>
  <dos>
   <i name="efermi">     -0.41827247 </i>
   <total>
    <array>
     <dimension dim="1">gridpoints</dimension>
     <dimension dim="2">spin</dimension>
     <field>energy</field>
     <field>total</field>
     <field>integrated</field>
     <set>
      <set comment="spin 1">
       <r>   -16.7411     0.0000     0.0000 </r>
       <r>   -16.6605     0.0000     0.0000 </r>
       <r>   -16.5799     0.0000     0.0000 </r>
       <r>   -16.4993    -0.0000    -0.0000 </r>
       <r>   -16.4187    -0.0000    -0.0000 </r>
       <r>   -16.3381    -0.0000    -0.0000 </r>
       <r>   -16.2575    -0.0000    -0.0000 </r>
       <r>   -16.1769    -0.0000    -0.0000 </r>
       <r>   -16.0963    -0.0000    -0.0000 </r>
       <r>   -16.0157    -0.0000    -0.0000 </r>
       <r>   -15.9351    -0.0034    -0.0003 </r>
       <r>   -15.8545    -0.1262    -0.0104 </r>
       <r>   -15.7739    -0.7203    -0.0685 </r>
       <r>   -15.6933     3.8929     0.2453 </r>
       <r>   -15.6127    15.2265     1.4725 </r>
       <r>   -15.5321     7.3525     2.0651 </r>
       <r>   -15.4515    -0.5414     2.0215 </r>
       <r>   -15.3709    -0.2560     2.0009 </r>
       <r>   -15.2903    -0.0106     2.0000 </r>
       <r>   -15.2097    -0.0001     2.0000 </r>
       <r>   -15.1291    -0.0000     2.0000 </r>
       <r>   -15.0485    -0.0000     2.0000 </r>
       <r>   -14.9679    -0.0000     2.0000 </r>
       <r>   -14.8873     0.0000     2.0000 </r>
       <r>   -14.8067     0.0000     2.0000 </r>
       <r>   -14.7261     0.0000     2.0000 </r>
       <r>   -14.6455     0.0000     2.0000 </r>
       <r>   -14.5649     0.0000     2.0000 </r>
       <r>   -14.4843     0.0000     2.0000 </r>
       <r>   -14.4037     0.0000     2.0000 </r>
       <r>   -14.3231     0.0000     2.0000 </r>
       <r>   -14.2425     0.0000     2.0000 </r>
       <r>   -14.1619     0.0000     2.0000 </r>
       <r>   -14.0813     0.0000     2.0000 </r>
       <r>   -14.0007     0.0000     2.0000 </r>
       <r>   -13.9201     0.0000     2.0000 </r>
       <r>   -13.8395     0.0000     2.0000 </r>
       <r>   -13.7589     0.0000     2.0000 </r>
       <r>   -13.6783     0.0000     2.0000 </r>
       <r>   -13.5977     0.0000     2.0000 </r>
       <r>   -13.5171     0.0000     2.0000 </r>
       <r>   -13.4365     0.0000     2.0000 </r>
       <r>   -13.3559     0.0000     2.0000 </r>
       <r>   -13.2753     0.0000     2.0000 </r>
       <r>   -13.1947     0.0000     2.0000 </r>
       <r>   -13.1141     0.0000     2.0000 </r>
       <r>   -13.0335     0.0000     2.0000 </r>
       <r>   -12.9529     0.0000     2.0000 </r>
       <r>   -12.8723     0.0000     2.0000 </r>
       <r>   -12.7917     0.0000     2.0000 </r>
       <r>   -12.7111     0.0000     2.0000 </r>
       <r>   -12.6305     0.0000     2.0000 </r>
       <r>   -12.5499     0.0000     2.0000 </r>
       <r>   -12.4693     0.0000     2.0000 </r>
       <r>   -12.3887     0.0000     2.0000 </r>
       <r>   -12.3081     0.0000     2.0000 </r>
       <r>   -12.2275     0.0000     2.0000 </r>
       <r>   -12.1469     0.0000     2.0000 </r>
       <r>   -12.0663     0.0000     2.0000 </r>
       <r>   -11.9857     0.0000     2.0000 </r>
       <r>   -11.9051     0.0000     2.0000 </r>
       <r>   -11.8245     0.0000     2.0000 </r>
       <r>   -11.7439     0.0000     2.0000 </r>
       <r>   -11.6633     0.0000     2.0000 </r>
       <r>   -11.5827     0.0000     2.0000 </r>
       <r>   -11.5021     0.0000     2.0000 </r>
       <r>   -11.4215     0.0000     2.0000 </r>
       <r>   -11.3409     0.0000     2.0000 </r>
       <r>   -11.2603     0.0000     2.0000 </r>
       <r>   -11.1797     0.0000     2.0000 </r>
       <r>   -11.0991     0.0000     2.0000 </r>
       <r>   -11.0185     0.0000     2.0000 </r>
       <r>   -10.9379     0.0000     2.0000 </r>
       <r>   -10.8573     0.0000     2.0000 </r>
       <r>   -10.7767     0.0000     2.0000 </r>
       <r>   -10.6961     0.0000     2.0000 </r>
       <r>   -10.6155     0.0000     2.0000 </r>
       <r>   -10.5349     0.0000     2.0000 </r>
       <r>   -10.4543     0.0000     2.0000 </r>
       <r>   -10.3737     0.0000     2.0000 </r>
       <r>   -10.2931     0.0000     2.0000 </r>
       <r>   -10.2125     0.0000     2.0000 </r>
       <r>   -10.1319     0.0000     2.0000 </r>
       <r>   -10.0513    -0.0000     2.0000 </r>
       <r>    -9.9707    -0.0000     2.0000 </r>
       <r>    -9.8901    -0.0000     2.0000 </r>
       <r>    -9.8095    -0.0000     2.0000 </r>
       <r>    -9.7289    -0.0000     2.0000 </r>
       <r>    -9.6483    -0.0000     2.0000 </r>
       <r>    -9.5677    -0.0000     2.0000 </r>
       <r>    -9.4871    -0.0018     1.9999 </r>
       <r>    -9.4065    -0.0363     1.9969 </r>
       <r>    -9.3259    -0.0343     1.9942 </r>
       <r>    -9.2453     0.9587     2.0714 </r>
       <r>    -9.1647     1.2815     2.1747 </r>
       <r>    -9.0841     0.8101     2.2400 </r>
       <r>    -9.0035     8.0421     2.8882 </r>
       <r>    -8.9229     8.1349     3.5439 </r>
       <r>    -8.8423     0.5091     3.5849 </r>
       <r>    -8.7617    -0.5262     3.5425 </r>
       <r>    -8.6811    -0.2682     3.5209 </r>
       <r>    -8.6005     4.8760     3.9139 </r>
       <r>    -8.5199     9.4347     4.6743 </r>
       <r>    -8.4393     3.5915     4.9638 </r>
       <r>    -8.3587     8.2270     5.6269 </r>
       <r>    -8.2781     7.4608     6.2282 </r>
       <r>    -8.1975     0.2556     6.2488 </r>
       <r>    -8.1169    -0.3172     6.2232 </r>
       <r>    -8.0363    -0.2196     6.2055 </r>
       <r>    -7.9557    -0.4284     6.1710 </r>
       <r>    -7.8751     5.1095     6.5828 </r>
       <r>    -7.7945    13.0458     7.6343 </r>
       <r>    -7.7139    12.5629     8.6469 </r>
       <r>    -7.6333     7.2297     9.2296 </r>
       <r>    -7.5528     5.0844     9.6394 </r>
       <r>    -7.4722     9.9870    10.4444 </r>
       <r>    -7.3916     7.9668    11.0865 </r>
       <r>    -7.3110     8.8343    11.7985 </r>
       <r>    -7.2304     5.2847    12.2245 </r>
       <r>    -7.1498     0.1989    12.2405 </r>
       <r>    -7.0692    -0.4238    12.2063 </r>
       <r>    -6.9886    -0.4673    12.1687 </r>
       <r>    -6.9080     5.3905    12.6031 </r>
       <r>    -6.8274    13.6293    13.7017 </r>
       <r>    -6.7468    11.8533    14.6570 </r>
       <r>    -6.6662    14.0187    15.7869 </r>
       <r>    -6.5856    25.9606    17.8793 </r>
       <r>    -6.5050    10.7304    18.7442 </r>
       <r>    -6.4244    -0.8450    18.6761 </r>
       <r>    -6.3438     6.5631    19.2051 </r>
       <r>    -6.2632    13.9105    20.3263 </r>
       <r>    -6.1826    13.8792    21.4449 </r>
       <r>    -6.1020     4.3165    21.7928 </r>
       <r>    -6.0214     1.2709    21.8953 </r>
       <r>    -5.9408     8.7406    22.5998 </r>
       <r>    -5.8602     6.3829    23.1142 </r>
       <r>    -5.7796    18.1858    24.5800 </r>
       <r>    -5.6990    39.6755    27.7778 </r>
       <r>    -5.6184    32.9846    30.4364 </r>
       <r>    -5.5378    18.2153    31.9045 </r>
       <r>    -5.4572    16.6666    33.2478 </r>
       <r>    -5.3766    10.8900    34.1256 </r>
       <r>    -5.2960    33.8180    36.8513 </r>
       <r>    -5.2154    53.7243    41.1814 </r>
       <r>    -5.1348    45.1129    44.8175 </r>
       <r>    -5.0542    65.6436    50.1084 </r>
       <r>    -4.9736    65.5564    55.3922 </r>
       <r>    -4.8930    52.6380    59.6348 </r>
       <r>    -4.8124    50.4374    63.7000 </r>
       <r>    -4.7318    54.4759    68.0907 </r>
       <r>    -4.6512    85.2236    74.9597 </r>
       <r>    -4.5706   105.8369    83.4901 </r>
       <r>    -4.4900    96.7280    91.2864 </r>
       <r>    -4.4094    85.8124    98.2028 </r>
       <r>    -4.3288    98.9572   106.1787 </r>
       <r>    -4.2482    81.0177   112.7087 </r>
       <r>    -4.1676    74.4504   118.7094 </r>
       <r>    -4.0870    80.9941   125.2375 </r>
       <r>    -4.0064    67.7686   130.6996 </r>
       <r>    -3.9258   136.2407   141.6805 </r>
       <r>    -3.8452   159.9208   154.5701 </r>
       <r>    -3.7646    98.4716   162.5068 </r>
       <r>    -3.6840    84.6640   169.3307 </r>
       <r>    -3.6034   130.9549   179.8856 </r>
       <r>    -3.5228   175.0459   193.9942 </r>
       <r>    -3.4422   146.0331   205.7644 </r>
       <r>    -3.3616   161.0093   218.7417 </r>
       <r>    -3.2810   211.0696   235.7538 </r>
       <r>    -3.2004   226.3965   254.0013 </r>
       <r>    -3.1198   232.7371   272.7598 </r>
       <r>    -3.0392   218.6162   290.3802 </r>
       <r>    -2.9586   150.6694   302.5241 </r>
       <r>    -2.8780   110.9935   311.4701 </r>
       <r>    -2.7974   124.9366   321.5399 </r>
       <r>    -2.7168   152.8004   333.8556 </r>
       <r>    -2.6362   201.3906   350.0876 </r>
       <r>    -2.5556   239.4745   369.3891 </r>
       <r>    -2.4750   200.9805   385.5881 </r>
       <r>    -2.3944   160.2420   398.5035 </r>
       <r>    -2.3138   162.9521   411.6374 </r>
       <r>    -2.2332   181.3955   426.2577 </r>
       <r>    -2.1526   234.0104   445.1189 </r>
       <r>    -2.0720   295.1862   468.9108 </r>
       <r>    -1.9914   270.4438   490.7084 </r>
       <r>    -1.9108   127.8326   501.0117 </r>
       <r>    -1.8302    62.6485   506.0611 </r>
       <r>    -1.7496    38.6392   509.1754 </r>
       <r>    -1.6690    30.7388   511.6529 </r>
       <r>    -1.5884    27.4656   513.8667 </r>
       <r>    -1.5078    31.2418   516.3847 </r>
       <r>    -1.4272    28.2564   518.6622 </r>
       <r>    -1.3466    18.5702   520.1589 </r>
       <r>    -1.2660    16.7334   521.5077 </r>
       <r>    -1.1854    10.8863   522.3851 </r>
       <r>    -1.1048     9.7234   523.1688 </r>
       <r>    -1.0242    12.5020   524.1764 </r>
       <r>    -0.9436    11.2641   525.0843 </r>
       <r>    -0.8630    16.1211   526.3837 </r>
       <r>    -0.7824    23.6913   528.2932 </r>
       <r>    -0.7018    13.6372   529.3923 </r>
       <r>    -0.6212     8.6872   530.0925 </r>
       <r>    -0.5406    14.1827   531.2356 </r>
       <r>    -0.4600    21.8493   532.9967 </r>
       <r>    -0.3794    51.8297   537.1741 </r>
       <r>    -0.2988    34.0068   539.9151 </r>
       <r>    -0.2182    11.8019   540.8663 </r>
       <r>    -0.1376    17.4276   542.2710 </r>
       <r>    -0.0570    17.3648   543.6706 </r>
       <r>     0.0236     6.3311   544.1808 </r>
       <r>     0.1042     7.7946   544.8091 </r>
       <r>     0.1848     9.5701   545.5804 </r>
       <r>     0.2654     3.3576   545.8510 </r>
       <r>     0.3460     8.3198   546.5216 </r>
       <r>     0.4266     8.8686   547.2364 </r>
       <r>     0.5072     4.5147   547.6003 </r>
       <r>     0.5878    13.8148   548.7138 </r>
       <r>     0.6684    23.0235   550.5695 </r>
       <r>     0.7490    33.3019   553.2536 </r>
       <r>     0.8296    25.8984   555.3410 </r>
       <r>     0.9102    10.3635   556.1763 </r>
       <r>     0.9908    23.1988   558.0461 </r>
       <r>     1.0714    25.7036   560.1178 </r>
       <r>     1.1520     8.7019   560.8191 </r>
       <r>     1.2326    11.4790   561.7443 </r>
       <r>     1.3132    20.0340   563.3591 </r>
       <r>     1.3938    12.0277   564.3285 </r>
       <r>     1.4744    12.9934   565.3758 </r>
       <r>     1.5550    11.3669   566.2919 </r>
       <r>     1.6356     9.9542   567.0942 </r>
       <r>     1.7162    14.7087   568.2798 </r>
       <r>     1.7968    28.2355   570.5555 </r>
       <r>     1.8774    19.7177   572.1448 </r>
       <r>     1.9580    15.1707   573.3675 </r>
       <r>     2.0386    25.6070   575.4314 </r>
       <r>     2.1192    18.4773   576.9207 </r>
       <r>     2.1998     6.1438   577.4159 </r>
       <r>     2.2804     2.9627   577.6547 </r>
       <r>     2.3610     3.0566   577.9010 </r>
       <r>     2.4416     8.5866   578.5931 </r>
       <r>     2.5222    12.8794   579.6312 </r>
       <r>     2.6028    20.2761   581.2654 </r>
       <r>     2.6834    17.7672   582.6974 </r>
       <r>     2.7640    12.0887   583.6718 </r>
       <r>     2.8446     9.7223   584.4554 </r>
       <r>     2.9252    10.1581   585.2741 </r>
       <r>     3.0058     7.4336   585.8733 </r>
       <r>     3.0864     6.4056   586.3896 </r>
       <r>     3.1670    11.6025   587.3247 </r>
       <r>     3.2476    14.7851   588.5164 </r>
       <r>     3.3282    11.7113   589.4603 </r>
       <r>     3.4088    11.1013   590.3551 </r>
       <r>     3.4894     5.3190   590.7838 </r>
       <r>     3.5700     6.3653   591.2968 </r>
       <r>     3.6506    13.7713   592.4068 </r>
       <r>     3.7312    25.1742   594.4358 </r>
       <r>     3.8118    23.0178   596.2911 </r>
       <r>     3.8924    17.4319   597.6961 </r>
       <r>     3.9730     7.4868   598.2995 </r>
       <r>     4.0536     5.8537   598.7713 </r>
       <r>     4.1342     9.4552   599.5334 </r>
       <r>     4.2148     3.4085   599.8081 </r>
       <r>     4.2954    11.4115   600.7279 </r>
       <r>     4.3760    18.5572   602.2236 </r>
       <r>     4.4566    13.9200   603.3455 </r>
       <r>     4.5372    26.0724   605.4469 </r>
       <r>     4.6178    30.5442   607.9088 </r>
       <r>     4.6984    24.4361   609.8783 </r>
       <r>     4.7790    17.3279   611.2749 </r>
       <r>     4.8596     9.6115   612.0496 </r>
       <r>     4.9402    14.3129   613.2032 </r>
       <r>     5.0208    24.9446   615.2138 </r>
       <r>     5.1014    38.5871   618.3239 </r>
       <r>     5.1820    42.4191   621.7428 </r>
       <r>     5.2626    28.5303   624.0424 </r>
       <r>     5.3432    19.9855   625.6532 </r>
       <r>     5.4238    21.7067   627.4027 </r>
       <r>     5.5044    20.2163   629.0322 </r>
       <r>     5.5850    31.7531   631.5914 </r>
       <r>     5.6656    26.2520   633.7073 </r>
       <r>     5.7462    14.8671   634.9056 </r>
       <r>     5.8268    24.6643   636.8935 </r>
       <r>     5.9074    40.7327   640.1766 </r>
       <r>     5.9880    41.1878   643.4963 </r>
       <r>     6.0686    15.6413   644.7570 </r>
       <r>     6.1492     5.6280   645.2106 </r>
       <r>     6.2298    14.8229   646.4053 </r>
       <r>     6.3104    14.2308   647.5523 </r>
       <r>     6.3910     5.7350   648.0146 </r>
       <r>     6.4716     0.1000   648.0226 </r>
       <r>     6.5522    -0.2563   648.0020 </r>
       <r>     6.6328    -0.0237   648.0000 </r>
       <r>     6.7134    -0.0005   648.0000 </r>
       <r>     6.7940    -0.0000   648.0000 </r>
       <r>     6.8746    -0.0000   648.0000 </r>
       <r>     6.9552    -0.0000   648.0000 </r>
       <r>     7.0358     0.0000   648.0000 </r>
       <r>     7.1164     0.0000   648.0000 </r>
       <r>     7.1970     0.0000   648.0000 </r>
       <r>     7.2776     0.0000   648.0000 </r>
       <r>     7.3582     0.0000   648.0000 </r>
       <r>     7.4388     0.0000   648.0000 </r>
      </set>
     </set>
    </array>
   </total>
  </dos>
 </calculation>
 <structure name="finalpos" >
  <crystal>
   <varray name="basis" >
    <v>      10.11850195       0.00000000       0.00000000 </v>
    <v>      -5.05925097       8.76287974       0.00000000 </v>
    <v>       0.00000000       0.00000000      18.58887505 </v>
   </varray>
   <i name="volume">   1648.22379336 </i>
   <varray name="rec_basis" >
    <v>       0.09882886       0.05705887      -0.00000000 </v>
    <v>       0.00000000       0.11411774      -0.00000000 </v>
    <v>       0.00000000       0.00000000       0.05379562 </v>
   </varray>
  </crystal>
  <varray name="positions" >
   <v>       0.99895999       0.00227913       0.61194661 </v>
   <v>       0.00035605       0.25069285       0.61520217 </v>
   <v>       0.99122698       0.49622431       0.60978119 </v>
   <v>       0.99601494       0.74998253       0.61129381 </v>
   <v>       0.24412919       0.00583454       0.61765191 </v>
   <v>       0.25063443       0.25247159       0.61191696 </v>
   <v>       0.25490390       0.49620421       0.60980535 </v>
   <v>       0.25220411       0.75440494       0.60777348 </v>
   <v>       0.51173854       0.00583831       0.61761219 </v>
   <v>       0.50348135       0.25663123       0.61152381 </v>
   <v>       0.50153166       0.50153566       0.61323699 </v>
   <v>       0.50392419       0.74997502       0.61129910 </v>
   <v>       0.75332191       0.00231454       0.61194531 </v>
   <v>       0.75184164       0.25248356       0.61191434 </v>
   <v>       0.74997083       0.50151361       0.61323481 </v>
   <v>       0.75054999       0.75120694       0.61330030 </v>
   <v>       0.08332860       0.16668598       0.38888246 </v>
   <v>       0.08331514       0.41662990       0.38880445 </v>
   <v>       0.08329656       0.66668218       0.38877180 </v>
   <v>       0.08330462       0.91671532       0.38881953 </v>
   <v>       0.33332178       0.16673118       0.38887295 </v>
   <v>       0.33335814       0.41664609       0.38882354 </v>
   <v>       0.33338544       0.66668208       0.38877176 </v>
   <v>       0.33337433       0.91674882       0.38878326 </v>
   <v>       0.58340958       0.16673046       0.38887277 </v>
   <v>       0.58335647       0.41667189       0.38886969 </v>
   <v>       0.58338708       0.66668638       0.38882951 </v>
   <v>       0.58341121       0.91671535       0.38881939 </v>
   <v>       0.83335780       0.16668569       0.38888239 </v>
   <v>       0.83328938       0.41664654       0.38882351 </v>
   <v>       0.83329862       0.66668629       0.38883031 </v>
   <v>       0.83338123       0.91674161       0.38888554 </v>
   <v>       0.16661308       0.08355310       0.49996450 </v>
   <v>       0.16654186       0.33305635       0.49974738 </v>
   <v>       0.16666182       0.58332179       0.49944690 </v>
   <v>       0.16639967       0.83372620       0.49947210 </v>
   <v>       0.41681133       0.08362245       0.49982840 </v>
   <v>       0.41666252       0.33333757       0.49997636 </v>
   <v>       0.41711941       0.58348478       0.49964770 </v>
   <v>       0.41732591       0.83372593       0.49947213 </v>
   <v>       0.66694174       0.08355250       0.49996383 </v>
   <v>       0.66667955       0.33334117       0.49997378 </v>
   <v>       0.66664377       0.58336190       0.49992685 </v>
   <v>       0.66687610       0.83344421       0.49990338 </v>
   <v>       0.91672470       0.08344133       0.50002420 </v>
   <v>       0.91651580       0.33305636       0.49974707 </v>
   <v>       0.91636196       0.58348581       0.49964693 </v>
   <v>       0.91656565       0.83344218       0.49990356 </v>
   <v>       0.34642013       0.94271117       0.68215124 </v>
   <v>       0.36319937       0.97611362       0.73476667 </v>
   <v>       0.15801651       0.56627006       0.70670900 </v>
  </varray>
 </structure>
</modeling>
