 running   96 mpi-ranks, with    1 threads/rank, on    1 nodes
 distrk:  each k-point on   96 cores,    1 groups
 distr:  one band on   24 cores,    4 groups
 vasp.6.4.1 05Apr23 (build Jun 16 2023 21:11:36) complex                        
  
 POSCAR found type information on POSCAR CuN H 
 POSCAR found :  3 types and      51 ions
 Reading from existing POTCAR
 scaLAPACK will be used
 Reading from existing POTCAR
 LDA part: xc-table for Pade appr. of Perdew
 POSCAR found type information on POSCAR CuN H 
 POSCAR found :  3 types and      51 ions
 POSCAR, INCAR and KPOINTS ok, starting setup
 FFT: planning ... GRIDC
 FFT: planning ... GRID_SOFT
 FFT: planning ... GRID
 WAVECAR not read
 entering main loop
       N       E                     dE             d eps       ncg     rms          rms(c)
DAV:   1     0.510976491027E+04    0.51098E+04   -0.21908E+05  3240   0.198E+03
DAV:   2     0.569810908424E+03   -0.45400E+04   -0.43853E+04  3240   0.449E+02
DAV:   3    -0.150736747068E+03   -0.72055E+03   -0.66223E+03  3304   0.225E+02
DAV:   4    -0.216847919211E+03   -0.66111E+02   -0.61340E+02  4408   0.805E+01
DAV:   5    -0.221049218784E+03   -0.42013E+01   -0.41234E+01  4816   0.163E+01    0.535E+01
RMM:   6    -0.198534596055E+03    0.22515E+02   -0.49588E+02  3255   0.105E+02    0.321E+01
RMM:   7    -0.178790223855E+03    0.19744E+02   -0.10944E+02  3245   0.537E+01    0.711E+00
RMM:   8    -0.178053596447E+03    0.73663E+00   -0.72389E+00  3492   0.811E+00    0.553E+00
RMM:   9    -0.177774028742E+03    0.27957E+00   -0.26187E+00  3280   0.595E+00    0.299E+00
RMM:  10    -0.177660539413E+03    0.11349E+00   -0.84301E-01  3442   0.305E+00    0.196E+00
RMM:  11    -0.177640752023E+03    0.19787E-01   -0.31415E-01  3291   0.178E+00    0.141E+00
RMM:  12    -0.177614849281E+03    0.25903E-01   -0.19553E-01  3308   0.162E+00    0.707E-01
RMM:  13    -0.177609671599E+03    0.51777E-02   -0.82914E-02  4354   0.648E-01    0.360E-01
RMM:  14    -0.177606812351E+03    0.28592E-02   -0.11949E-02  3330   0.312E-01    0.243E-01
RMM:  15    -0.177603774546E+03    0.30378E-02   -0.50831E-03  3319   0.235E-01    0.203E-01
RMM:  16    -0.177602088621E+03    0.16859E-02   -0.34890E-03  3284   0.228E-01    0.936E-02
RMM:  17    -0.177602025524E+03    0.63097E-04   -0.14306E-03  3405   0.127E-01    0.728E-02
RMM:  18    -0.177602453139E+03   -0.42761E-03   -0.94074E-04  3292   0.898E-02    0.607E-02
RMM:  19    -0.177603173140E+03   -0.72000E-03   -0.64434E-04  3310   0.711E-02    0.656E-02
RMM:  20    -0.177603728021E+03   -0.55488E-03   -0.37676E-04  3282   0.634E-02    0.240E-02
RMM:  21    -0.177604248671E+03   -0.52065E-03   -0.15666E-04  3235   0.317E-02    0.217E-02
RMM:  22    -0.177604709707E+03   -0.46104E-03   -0.94960E-05  3075   0.288E-02    0.121E-02
RMM:  23    -0.177605109834E+03   -0.40013E-03   -0.72442E-05  2685   0.195E-02    0.204E-02
RMM:  24    -0.177605310321E+03   -0.20049E-03   -0.19799E-05  1952   0.161E-02    0.143E-02
RMM:  25    -0.177605593689E+03   -0.28337E-03   -0.20684E-05  1983   0.127E-02    0.559E-03
RMM:  26    -0.177605731105E+03   -0.13742E-03   -0.10012E-05  1940   0.963E-03    0.628E-03
RMM:  27    -0.177605760074E+03   -0.28970E-04   -0.26494E-06  1870   0.597E-03    0.548E-03
RMM:  28    -0.177605832544E+03   -0.72469E-04   -0.53074E-06  1923   0.468E-03    0.241E-03
RMM:  29    -0.177605847850E+03   -0.15307E-04   -0.12713E-06  1855   0.336E-03    0.161E-03
RMM:  30    -0.177605853448E+03   -0.55977E-05   -0.56226E-07  1724   0.211E-03
   1 F= -.17760585E+03 E0= -.17758285E+03  d E =-.689997E-01
 Finite differences POTIM= 0.01500 DOF= 153
 bond charge predicted
       N       E                     dE             d eps       ncg     rms          rms(c)
DAV:   1    -0.177602551527E+03    0.32963E-02   -0.12763E+00  3424   0.204E+00    0.669E-02
RMM:   2    -0.177603917807E+03   -0.13663E-02   -0.14330E-02  3251   0.524E-01    0.648E-02
RMM:   3    -0.177604622108E+03   -0.70430E-03   -0.77772E-03  4509   0.228E-01    0.564E-02
RMM:   4    -0.177604605664E+03    0.16443E-04   -0.25467E-04  3309   0.377E-02    0.479E-02
RMM:   5    -0.177604572782E+03    0.32882E-04   -0.53520E-05  2753   0.301E-02    0.360E-02
RMM:   6    -0.177604552857E+03    0.19925E-04   -0.12868E-04  3477   0.376E-02    0.203E-02
RMM:   7    -0.177604550688E+03    0.21688E-05   -0.32695E-05  2313   0.227E-02
   2 F= -.17760455E+03 E0= -.17758160E+03  d E =-.688477E-01
 Finite differences progress:
  Degree of freedom:   1/153
  Displacement:        1/  1
  Total:               1/153
 bond charge predicted
       N       E                     dE             d eps       ncg     rms          rms(c)
DAV:   1    -0.177601022808E+03    0.35300E-02   -0.25562E+00  3336   0.290E+00    0.102E-01
RMM:   2    -0.177603843693E+03   -0.28209E-02   -0.29840E-02  3249   0.747E-01    0.117E-01
RMM:   3    -0.177605275222E+03   -0.14315E-02   -0.16712E-02  4531   0.340E-01    0.817E-02
RMM:   4    -0.177605246400E+03    0.28822E-04   -0.53695E-04  3311   0.527E-02    0.722E-02
RMM:   5    -0.177605180827E+03    0.65573E-04   -0.13185E-04  3179   0.499E-02    0.585E-02
RMM:   6    -0.177605117247E+03    0.63580E-04   -0.26866E-04  3629   0.528E-02    0.287E-02
RMM:   7    -0.177605112336E+03    0.49109E-05   -0.65636E-05  2961   0.326E-02
   3 F= -.17760511E+03 E0= -.17758212E+03  d E =-.689829E-01
 Finite differences progress:
  Degree of freedom:   2/153
  Displacement:        1/  1
  Total:               2/153
 bond charge predicted
       N       E                     dE             d eps       ncg     rms          rms(c)
DAV:   1    -0.177602008632E+03    0.31086E-02   -0.25666E+00  3336   0.290E+00    0.960E-02
RMM:   2    -0.177604651097E+03   -0.26425E-02   -0.27905E-02  3250   0.734E-01    0.840E-02
RMM:   3    -0.177606018166E+03   -0.13671E-02   -0.14911E-02  4560   0.318E-01    0.886E-02
RMM:   4    -0.177605959183E+03    0.58983E-04   -0.49350E-04  4107   0.518E-02    0.708E-02
RMM:   5    -0.177605914068E+03    0.45115E-04   -0.62573E-05  2745   0.314E-02    0.602E-02
RMM:   6    -0.177605857491E+03    0.56577E-04   -0.25906E-04  3990   0.494E-02    0.373E-02
RMM:   7    -0.177605843739E+03    0.13753E-04   -0.77197E-05  3131   0.360E-02    0.197E-02
RMM:   8    -0.177605840378E+03    0.33606E-05   -0.19515E-05  1887   0.163E-02
   4 F= -.17760584E+03 E0= -.17758288E+03  d E =-.688950E-01
 Finite differences progress:
  Degree of freedom:   3/153
  Displacement:        1/  1
  Total:               3/153
 bond charge predicted
       N       E                     dE             d eps       ncg     rms          rms(c)
DAV:   1    -0.177601126767E+03    0.47170E-02   -0.25617E+00  3384   0.292E+00    0.129E-01
RMM:   2    -0.177604052518E+03   -0.29258E-02   -0.31690E-02  3249   0.777E-01    0.170E-01
RMM:   3    -0.177605224024E+03   -0.11715E-02   -0.16817E-02  4445   0.366E-01    0.823E-02
RMM:   4    -0.177605223377E+03    0.64783E-06   -0.91065E-04  3538   0.655E-02    0.736E-02
RMM:   5    -0.177605170427E+03    0.52949E-04   -0.13102E-04  3193   0.488E-02    0.624E-02
RMM:   6    -0.177605092086E+03    0.78341E-04   -0.22718E-04  3439   0.530E-02    0.285E-02
RMM:   7    -0.177605090893E+03    0.11927E-05   -0.94601E-05  3167   0.368E-02
   5 F= -.17760509E+03 E0= -.17758210E+03  d E =-.689810E-01
 Finite differences progress:
  Degree of freedom:   4/153
  Displacement:        1/  1
  Total:               4/153
 bond charge predicted
       N       E                     dE             d eps       ncg     rms          rms(c)
DAV:   1    -0.177601141438E+03    0.39506E-02   -0.25584E+00  3312   0.282E+00    0.967E-02
RMM:   2    -0.177603932043E+03   -0.27906E-02   -0.29331E-02  3251   0.723E-01    0.109E-01
RMM:   3    -0.177605359078E+03   -0.14270E-02   -0.16405E-02  4541   0.327E-01    0.782E-02
RMM:   4    -0.177605333692E+03    0.25386E-04   -0.50656E-04  3257   0.504E-02    0.691E-02
RMM:   5    -0.177605272269E+03    0.61424E-04   -0.11489E-04  3070   0.458E-02    0.547E-02
RMM:   6    -0.177605218243E+03    0.54026E-04   -0.27038E-04  3723   0.507E-02    0.283E-02
RMM:   7    -0.177605212811E+03    0.54320E-05   -0.54759E-05  2813   0.302E-02
   6 F= -.17760521E+03 E0= -.17758224E+03  d E =-.689228E-01
 Finite differences progress:
  Degree of freedom:   5/153
  Displacement:        1/  1
  Total:               5/153
 bond charge predicted
       N       E                     dE             d eps       ncg     rms          rms(c)
DAV:   1    -0.177600169269E+03    0.50490E-02   -0.25687E+00  3324   0.280E+00    0.905E-02
RMM:   2    -0.177602823360E+03   -0.26541E-02   -0.27824E-02  3253   0.708E-01    0.906E-02
RMM:   3    -0.177604149913E+03   -0.13266E-02   -0.14765E-02  4522   0.306E-01    0.811E-02
RMM:   4    -0.177604111864E+03    0.38049E-04   -0.44013E-04  3346   0.482E-02    0.689E-02
RMM:   5    -0.177604061586E+03    0.50279E-04   -0.97241E-05  2887   0.402E-02    0.580E-02
RMM:   6    -0.177604009303E+03    0.52283E-04   -0.26249E-04  3777   0.507E-02    0.354E-02
RMM:   7    -0.177603998057E+03    0.11246E-04   -0.67787E-05  3085   0.339E-02    0.184E-02
RMM:   8    -0.177603994847E+03    0.32096E-05   -0.17112E-05  1876   0.145E-02
   7 F= -.17760399E+03 E0= -.17758102E+03  d E =-.689126E-01
 Finite differences progress:
  Degree of freedom:   6/153
  Displacement:        1/  1
  Total:               6/153
 bond charge predicted
       N       E                     dE             d eps       ncg     rms          rms(c)
DAV:   1    -0.177614391372E+03   -0.10393E-01   -0.25623E+00  3348   0.291E+00    0.133E-01
RMM:   2    -0.177617355050E+03   -0.29637E-02   -0.32210E-02  3254   0.782E-01    0.179E-01
RMM:   3    -0.177618462011E+03   -0.11070E-02   -0.16703E-02  4396   0.369E-01    0.816E-02
RMM:   4    -0.177618488611E+03   -0.26601E-04   -0.11798E-03  3908   0.731E-02    0.739E-02
RMM:   5    -0.177618444914E+03    0.43697E-04   -0.10706E-04  2951   0.411E-02    0.642E-02
RMM:   6    -0.177618359153E+03    0.85761E-04   -0.23682E-04  3561   0.524E-02    0.290E-02
RMM:   7    -0.177618357168E+03    0.19857E-05   -0.94014E-05  3195   0.375E-02
   8 F= -.17761836E+03 E0= -.17759532E+03  d E =-.690967E-01
 Finite differences progress:
  Degree of freedom:   7/153
  Displacement:        1/  1
  Total:               7/153
 bond charge predicted
       N       E                     dE             d eps       ncg     rms          rms(c)
DAV:   1    -0.177607942740E+03    0.10416E-01   -0.25548E+00  3292   0.290E+00    0.101E-01
RMM:   2    -0.177610746639E+03   -0.28039E-02   -0.29644E-02  3254   0.745E-01    0.117E-01
RMM:   3    -0.177612176422E+03   -0.14298E-02   -0.16538E-02  4528   0.337E-01    0.827E-02
RMM:   4    -0.177612144795E+03    0.31627E-04   -0.52816E-04  3325   0.528E-02    0.725E-02
RMM:   5    -0.177612082082E+03    0.62712E-04   -0.12714E-04  3131   0.485E-02    0.599E-02
RMM:   6    -0.177612020198E+03    0.61884E-04   -0.27964E-04  3701   0.535E-02    0.326E-02
RMM:   7    -0.177612012829E+03    0.73689E-05   -0.70412E-05  3101   0.342E-02
   9 F= -.17761201E+03 E0= -.17758903E+03  d E =-.689603E-01
 Finite differences progress:
  Degree of freedom:   8/153
  Displacement:        1/  1
  Total:               8/153
 bond charge predicted
       N       E                     dE             d eps       ncg     rms          rms(c)
DAV:   1    -0.177614714391E+03   -0.26942E-02   -0.25614E+00  3276   0.290E+00    0.956E-02
RMM:   2    -0.177617416518E+03   -0.27021E-02   -0.28478E-02  3246   0.743E-01    0.996E-02
RMM:   3    -0.177618765256E+03   -0.13487E-02   -0.15137E-02  4545   0.322E-01    0.843E-02
RMM:   4    -0.177618722504E+03    0.42751E-04   -0.45311E-04  3393   0.503E-02    0.713E-02
RMM:   5    -0.177618656091E+03    0.66414E-04   -0.10813E-04  3043   0.427E-02    0.564E-02
RMM:   6    -0.177618610144E+03    0.45947E-04   -0.27650E-04  3801   0.538E-02    0.337E-02
RMM:   7    -0.177618599548E+03    0.10596E-04   -0.64860E-05  3050   0.330E-02    0.164E-02
RMM:   8    -0.177618597353E+03    0.21953E-05   -0.17575E-05  1881   0.135E-02
  10 F= -.17761860E+03 E0= -.17759560E+03  d E =-.689841E-01
 Finite differences progress:
  Degree of freedom:   9/153
  Displacement:        1/  1
  Total:               9/153
 bond charge predicted
       N       E                     dE             d eps       ncg     rms          rms(c)
DAV:   1    -0.177601102028E+03    0.17498E-01   -0.25580E+00  3336   0.294E+00    0.116E-01
RMM:   2    -0.177603999223E+03   -0.28972E-02   -0.30818E-02  3250   0.762E-01    0.152E-01
RMM:   3    -0.177605339634E+03   -0.13404E-02   -0.17303E-02  4512   0.362E-01    0.810E-02
RMM:   4    -0.177605318967E+03    0.20667E-04   -0.64951E-04  3394   0.582E-02    0.720E-02
RMM:   5    -0.177605269089E+03    0.49878E-04   -0.13832E-04  3214   0.516E-02    0.618E-02
RMM:   6    -0.177605192058E+03    0.77031E-04   -0.20769E-04  3406   0.507E-02    0.266E-02
RMM:   7    -0.177605194004E+03   -0.19459E-05   -0.97952E-05  3188   0.365E-02
  11 F= -.17760519E+03 E0= -.17758218E+03  d E =-.690537E-01
 Finite differences progress:
  Degree of freedom:  10/153
  Displacement:        1/  1
  Total:              10/153
 bond charge predicted
       N       E                     dE             d eps       ncg     rms          rms(c)
DAV:   1    -0.177601214104E+03    0.39780E-02   -0.25616E+00  3272   0.288E+00    0.104E-01
RMM:   2    -0.177604083632E+03   -0.28695E-02   -0.30334E-02  3252   0.749E-01    0.130E-01
RMM:   3    -0.177605452802E+03   -0.13692E-02   -0.16753E-02  4510   0.344E-01    0.771E-02
RMM:   4    -0.177605441722E+03    0.11080E-04   -0.61106E-04  3320   0.551E-02    0.699E-02
RMM:   5    -0.177605394272E+03    0.47450E-04   -0.10846E-04  3043   0.451E-02    0.590E-02
RMM:   6    -0.177605322905E+03    0.71367E-04   -0.23248E-04  3663   0.482E-02    0.286E-02
RMM:   7    -0.177605320243E+03    0.26621E-05   -0.69742E-05  3022   0.333E-02
  12 F= -.17760532E+03 E0= -.17758235E+03  d E =-.689222E-01
 Finite differences progress:
  Degree of freedom:  11/153
  Displacement:        1/  1
  Total:              11/153
 bond charge predicted
       N       E                     dE             d eps       ncg     rms          rms(c)
DAV:   1    -0.177601757858E+03    0.35650E-02   -0.25722E+00  3276   0.289E+00    0.912E-02
RMM:   2    -0.177604405017E+03   -0.26472E-02   -0.27787E-02  3252   0.727E-01    0.832E-02
RMM:   3    -0.177605756200E+03   -0.13512E-02   -0.14824E-02  4561   0.315E-01    0.818E-02
RMM:   4    -0.177605716586E+03    0.39614E-04   -0.45322E-04  3591   0.496E-02    0.686E-02
RMM:   5    -0.177605670068E+03    0.46518E-04   -0.68388E-05  2592   0.329E-02    0.557E-02
RMM:   6    -0.177605622879E+03    0.47189E-04   -0.25902E-04  3993   0.480E-02    0.390E-02
RMM:   7    -0.177605610762E+03    0.12117E-04   -0.75295E-05  3086   0.354E-02    0.213E-02
RMM:   8    -0.177605606248E+03    0.45136E-05   -0.17484E-05  1881   0.157E-02
  13 F= -.17760561E+03 E0= -.17758266E+03  d E =-.688512E-01
 Finite differences progress:
  Degree of freedom:  12/153
  Displacement:        1/  1
  Total:              12/153
 bond charge predicted
       N       E                     dE             d eps       ncg     rms          rms(c)
DAV:   1    -0.177602008794E+03    0.36020E-02   -0.25532E+00  3392   0.298E+00    0.160E-01
RMM:   2    -0.177605225982E+03   -0.32172E-02   -0.33897E-02  3264   0.817E-01    0.229E-01
RMM:   3    -0.177606034992E+03   -0.80901E-03   -0.16535E-02  4232   0.388E-01    0.933E-02
RMM:   4    -0.177606117582E+03   -0.82590E-04   -0.20957E-03  4370   0.105E-01    0.818E-02
RMM:   5    -0.177606072919E+03    0.44663E-04   -0.11313E-04  3123   0.386E-02    0.707E-02
RMM:   6    -0.177605995228E+03    0.77690E-04   -0.24999E-04  3493   0.536E-02    0.418E-02
RMM:   7    -0.177605981928E+03    0.13300E-04   -0.14529E-04  3230   0.494E-02    0.218E-02
RMM:   8    -0.177605979924E+03    0.20037E-05   -0.47848E-05  2558   0.240E-02
  14 F= -.17760598E+03 E0= -.17758298E+03  d E =-.689922E-01
 Finite differences progress:
  Degree of freedom:  13/153
  Displacement:        1/  1
  Total:              13/153
 bond charge predicted
       N       E                     dE             d eps       ncg     rms          rms(c)
DAV:   1    -0.177601203299E+03    0.47786E-02   -0.25383E+00  3296   0.290E+00    0.137E-01
RMM:   2    -0.177603886388E+03   -0.26831E-02   -0.28876E-02  3280   0.711E-01    0.955E-02
RMM:   3    -0.177605329417E+03   -0.14430E-02   -0.14943E-02  4424   0.313E-01    0.115E-01
RMM:   4    -0.177605200071E+03    0.12935E-03   -0.98275E-04  3414   0.956E-02    0.657E-02
RMM:   5    -0.177605185931E+03    0.14140E-04   -0.40940E-04  3322   0.627E-02    0.562E-02
RMM:   6    -0.177605146596E+03    0.39335E-04   -0.19408E-04  3356   0.460E-02    0.282E-02
RMM:   7    -0.177605142483E+03    0.41123E-05   -0.97384E-05  3139   0.397E-02
  15 F= -.17760514E+03 E0= -.17758216E+03  d E =-.689512E-01
 Finite differences progress:
  Degree of freedom:  14/153
  Displacement:        1/  1
  Total:              14/153
 bond charge predicted
       N       E                     dE             d eps       ncg     rms          rms(c)
DAV:   1    -0.177603258043E+03    0.18886E-02   -0.25311E+00  3284   0.289E+00    0.157E-01
RMM:   2    -0.177606310275E+03   -0.30522E-02   -0.31347E-02  3265   0.763E-01    0.215E-01
RMM:   3    -0.177607138017E+03   -0.82774E-03   -0.15470E-02  4174   0.353E-01    0.978E-02
RMM:   4    -0.177607154038E+03   -0.16021E-04   -0.16866E-03  4282   0.951E-02    0.769E-02
RMM:   5    -0.177607116719E+03    0.37319E-04   -0.18693E-04  3248   0.542E-02    0.698E-02
RMM:   6    -0.177607046195E+03    0.70523E-04   -0.19654E-04  3331   0.516E-02    0.292E-02
RMM:   7    -0.177607040370E+03    0.58254E-05   -0.86718E-05  3135   0.372E-02
  16 F= -.17760704E+03 E0= -.17758409E+03  d E =-.688410E-01
 Finite differences progress:
  Degree of freedom:  15/153
  Displacement:        1/  1
  Total:              15/153
 bond charge predicted
       N       E                     dE             d eps       ncg     rms          rms(c)
DAV:   1    -0.177600907570E+03    0.61386E-02   -0.25425E+00  3384   0.297E+00    0.120E-01
RMM:   2    -0.177603630961E+03   -0.27234E-02   -0.29647E-02  3265   0.741E-01    0.112E-01
RMM:   3    -0.177605153528E+03   -0.15226E-02   -0.17173E-02  4530   0.352E-01    0.963E-02
RMM:   4    -0.177605086879E+03    0.66650E-04   -0.70974E-04  4146   0.634E-02    0.762E-02
RMM:   5    -0.177605046089E+03    0.40790E-04   -0.95287E-05  3082   0.369E-02    0.688E-02
RMM:   6    -0.177604971868E+03    0.74220E-04   -0.23604E-04  3619   0.513E-02    0.368E-02
RMM:   7    -0.177604962516E+03    0.93524E-05   -0.13145E-04  3272   0.449E-02    0.188E-02
RMM:   8    -0.177604961392E+03    0.11241E-05   -0.42938E-05  2437   0.223E-02
  17 F= -.17760496E+03 E0= -.17758195E+03  d E =-.690412E-01
 Finite differences progress:
  Degree of freedom:  16/153
  Displacement:        1/  1
  Total:              16/153
 bond charge predicted
       N       E                     dE             d eps       ncg     rms          rms(c)
DAV:   1    -0.177599687365E+03    0.52752E-02   -0.25580E+00  3268   0.290E+00    0.103E-01
RMM:   2    -0.177602545742E+03   -0.28584E-02   -0.30175E-02  3251   0.749E-01    0.121E-01
RMM:   3    -0.177603980739E+03   -0.14350E-02   -0.16922E-02  4529   0.343E-01    0.805E-02
RMM:   4    -0.177603955418E+03    0.25321E-04   -0.56687E-04  3312   0.536E-02    0.713E-02
RMM:   5    -0.177603888852E+03    0.66566E-04   -0.13724E-04  3194   0.509E-02    0.574E-02
RMM:   6    -0.177603830496E+03    0.58356E-04   -0.27069E-04  3655   0.533E-02    0.282E-02
RMM:   7    -0.177603825439E+03    0.50568E-05   -0.61746E-05  2912   0.318E-02
  18 F= -.17760383E+03 E0= -.17758083E+03  d E =-.689970E-01
 Finite differences progress:
  Degree of freedom:  17/153
  Displacement:        1/  1
  Total:              17/153
 bond charge predicted
       N       E                     dE             d eps       ncg     rms          rms(c)
DAV:   1    -0.177601542286E+03    0.22882E-02   -0.25656E+00  3272   0.290E+00    0.952E-02
RMM:   2    -0.177604207637E+03   -0.26654E-02   -0.28099E-02  3250   0.734E-01    0.807E-02
RMM:   3    -0.177605608278E+03   -0.14006E-02   -0.15204E-02  4556   0.321E-01    0.882E-02
RMM:   4    -0.177605554456E+03    0.53823E-04   -0.52330E-04  4181   0.531E-02    0.707E-02
RMM:   5    -0.177605511465E+03    0.42990E-04   -0.46039E-05  2270   0.260E-02    0.592E-02
RMM:   6    -0.177605454823E+03    0.56642E-04   -0.31341E-04  4230   0.525E-02    0.375E-02
RMM:   7    -0.177605445365E+03    0.94581E-05   -0.74636E-05  3122   0.358E-02
  19 F= -.17760545E+03 E0= -.17758248E+03  d E =-.688865E-01
 Finite differences progress:
  Degree of freedom:  18/153
  Displacement:        1/  1
  Total:              18/153
 bond charge predicted
       N       E                     dE             d eps       ncg     rms          rms(c)
DAV:   1    -0.177588133394E+03    0.17321E-01   -0.25625E+00  3348   0.294E+00    0.128E-01
RMM:   2    -0.177591025681E+03   -0.28923E-02   -0.31268E-02  3249   0.776E-01    0.165E-01
RMM:   3    -0.177592222753E+03   -0.11971E-02   -0.16653E-02  4486   0.363E-01    0.866E-02
RMM:   4    -0.177592207973E+03    0.14780E-04   -0.78932E-04  3718   0.618E-02    0.771E-02
RMM:   5    -0.177592158383E+03    0.49590E-04   -0.13087E-04  3160   0.482E-02    0.676E-02
RMM:   6    -0.177592067958E+03    0.90425E-04   -0.24515E-04  3538   0.537E-02    0.285E-02
RMM:   7    -0.177592065243E+03    0.27143E-05   -0.95192E-05  3180   0.381E-02
  20 F= -.17759207E+03 E0= -.17756910E+03  d E =-.688950E-01
 Finite differences progress:
  Degree of freedom:  19/153
  Displacement:        1/  1
  Total:              19/153
 bond charge predicted
       N       E                     dE             d eps       ncg     rms          rms(c)
DAV:   1    -0.177607893619E+03   -0.15826E-01   -0.25552E+00  3280   0.290E+00    0.102E-01
RMM:   2    -0.177610736051E+03   -0.28424E-02   -0.29886E-02  3246   0.750E-01    0.118E-01
RMM:   3    -0.177612173494E+03   -0.14374E-02   -0.16694E-02  4536   0.339E-01    0.831E-02
RMM:   4    -0.177612142482E+03    0.31012E-04   -0.52279E-04  3391   0.530E-02    0.723E-02
RMM:   5    -0.177612078914E+03    0.63568E-04   -0.13170E-04  3170   0.486E-02    0.600E-02
RMM:   6    -0.177612014611E+03    0.64303E-04   -0.26790E-04  3645   0.535E-02    0.279E-02
RMM:   7    -0.177612010338E+03    0.42733E-05   -0.63343E-05  2896   0.315E-02
  21 F= -.17761201E+03 E0= -.17758902E+03  d E =-.689595E-01
 Finite differences progress:
  Degree of freedom:  20/153
  Displacement:        1/  1
  Total:              20/153
 bond charge predicted
       N       E                     dE             d eps       ncg     rms          rms(c)
DAV:   1    -0.177614681671E+03   -0.26671E-02   -0.25616E+00  3264   0.290E+00    0.957E-02
RMM:   2    -0.177617372363E+03   -0.26907E-02   -0.28386E-02  3246   0.742E-01    0.982E-02
RMM:   3    -0.177618717228E+03   -0.13449E-02   -0.15051E-02  4545   0.321E-01    0.847E-02
RMM:   4    -0.177618672574E+03    0.44654E-04   -0.45176E-04  3423   0.502E-02    0.712E-02
RMM:   5    -0.177618604370E+03    0.68204E-04   -0.10731E-04  3044   0.424E-02    0.553E-02
RMM:   6    -0.177618559534E+03    0.44836E-04   -0.27867E-04  3820   0.540E-02    0.318E-02
RMM:   7    -0.177618550290E+03    0.92440E-05   -0.60626E-05  2983   0.319E-02
  22 F= -.17761855E+03 E0= -.17759555E+03  d E =-.689918E-01
 Finite differences progress:
  Degree of freedom:  21/153
  Displacement:        1/  1
  Total:              21/153
 bond charge predicted
       N       E                     dE             d eps       ncg     rms          rms(c)
DAV:   1    -0.177601159214E+03    0.17400E-01   -0.25544E+00  3316   0.295E+00    0.121E-01
RMM:   2    -0.177604052621E+03   -0.28934E-02   -0.30705E-02  3256   0.767E-01    0.158E-01
RMM:   3    -0.177605324711E+03   -0.12721E-02   -0.16691E-02  4489   0.357E-01    0.854E-02
RMM:   4    -0.177605310686E+03    0.14024E-04   -0.77645E-04  3849   0.623E-02    0.749E-02
RMM:   5    -0.177605275481E+03    0.35205E-04   -0.10907E-04  3020   0.425E-02    0.685E-02
RMM:   6    -0.177605188236E+03    0.87245E-04   -0.21842E-04  3537   0.505E-02    0.336E-02
RMM:   7    -0.177605183646E+03    0.45903E-05   -0.10880E-04  3206   0.408E-02    0.213E-02
RMM:   8    -0.177605181387E+03    0.22593E-05   -0.38314E-05  2423   0.223E-02
  23 F= -.17760518E+03 E0= -.17758218E+03  d E =-.689993E-01
 Finite differences progress:
  Degree of freedom:  22/153
  Displacement:        1/  1
  Total:              22/153
 bond charge predicted
       N       E                     dE             d eps       ncg     rms          rms(c)
DAV:   1    -0.177596531119E+03    0.86525E-02   -0.25575E+00  3276   0.290E+00    0.111E-01
RMM:   2    -0.177599387524E+03   -0.28564E-02   -0.29664E-02  3268   0.742E-01    0.138E-01
RMM:   3    -0.177600695237E+03   -0.13077E-02   -0.16066E-02  4540   0.335E-01    0.834E-02
RMM:   4    -0.177600662934E+03    0.32304E-04   -0.56007E-04  3439   0.534E-02    0.720E-02
RMM:   5    -0.177600631646E+03    0.31288E-04   -0.10520E-04  2935   0.415E-02    0.666E-02
RMM:   6    -0.177600548433E+03    0.83213E-04   -0.23384E-04  3654   0.479E-02    0.294E-02
RMM:   7    -0.177600542246E+03    0.61871E-05   -0.70243E-05  3010   0.338E-02
  24 F= -.17760054E+03 E0= -.17757753E+03  d E =-.690512E-01
 Finite differences progress:
  Degree of freedom:  23/153
  Displacement:        1/  1
  Total:              23/153
 bond charge predicted
       N       E                     dE             d eps       ncg     rms          rms(c)
DAV:   1    -0.177625252765E+03   -0.24704E-01   -0.25652E+00  3280   0.287E+00    0.101E-01
RMM:   2    -0.177627971465E+03   -0.27187E-02   -0.28346E-02  3254   0.735E-01    0.121E-01
RMM:   3    -0.177629193029E+03   -0.12216E-02   -0.14424E-02  4492   0.313E-01    0.856E-02
RMM:   4    -0.177629158204E+03    0.34825E-04   -0.53408E-04  3572   0.526E-02    0.731E-02
RMM:   5    -0.177629117190E+03    0.41014E-04   -0.99440E-05  2995   0.400E-02    0.670E-02
RMM:   6    -0.177629038256E+03    0.78934E-04   -0.24289E-04  3658   0.514E-02    0.338E-02
RMM:   7    -0.177629027247E+03    0.11009E-04   -0.80274E-05  3102   0.364E-02    0.144E-02
RMM:   8    -0.177629027587E+03   -0.34018E-06   -0.24847E-05  2012   0.148E-02
  25 F= -.17762903E+03 E0= -.17760598E+03  d E =-.691380E-01
 Finite differences progress:
  Degree of freedom:  24/153
  Displacement:        1/  1
  Total:              24/153
 bond charge predicted
       N       E                     dE             d eps       ncg     rms          rms(c)
DAV:   1    -0.177599136153E+03    0.29891E-01   -0.25383E+00  3396   0.294E+00    0.124E-01
RMM:   2    -0.177601979722E+03   -0.28436E-02   -0.30225E-02  3282   0.733E-01    0.113E-01
RMM:   3    -0.177603435864E+03   -0.14561E-02   -0.16341E-02  4533   0.333E-01    0.983E-02
RMM:   4    -0.177603368699E+03    0.67165E-04   -0.69485E-04  4089   0.634E-02    0.756E-02
RMM:   5    -0.177603316260E+03    0.52439E-04   -0.91211E-05  3109   0.368E-02    0.642E-02
RMM:   6    -0.177603262984E+03    0.53275E-04   -0.28721E-04  3758   0.537E-02    0.422E-02
RMM:   7    -0.177603247077E+03    0.15907E-04   -0.11254E-04  3205   0.441E-02    0.188E-02
RMM:   8    -0.177603244753E+03    0.23237E-05   -0.29818E-05  2095   0.185E-02
  26 F= -.17760324E+03 E0= -.17758024E+03  d E =-.690076E-01
 Finite differences progress:
  Degree of freedom:  25/153
  Displacement:        1/  1
  Total:              25/153
 bond charge predicted
       N       E                     dE             d eps       ncg     rms          rms(c)
DAV:   1    -0.177601339875E+03    0.19072E-02   -0.25469E+00  3272   0.289E+00    0.147E-01
RMM:   2    -0.177604149679E+03   -0.28098E-02   -0.29786E-02  3251   0.748E-01    0.170E-01
RMM:   3    -0.177605325355E+03   -0.11757E-02   -0.15830E-02  4445   0.342E-01    0.106E-01
RMM:   4    -0.177605244090E+03    0.81265E-04   -0.86084E-04  4129   0.666E-02    0.784E-02
RMM:   5    -0.177605207858E+03    0.36232E-04   -0.19308E-04  3248   0.556E-02    0.750E-02
RMM:   6    -0.177605124028E+03    0.83830E-04   -0.22121E-04  3324   0.581E-02    0.300E-02
RMM:   7    -0.177605115703E+03    0.83254E-05   -0.78611E-05  3061   0.348E-02
  27 F= -.17760512E+03 E0= -.17758213E+03  d E =-.689461E-01
 Finite differences progress:
  Degree of freedom:  26/153
  Displacement:        1/  1
  Total:              26/153
 bond charge predicted
       N       E                     dE             d eps       ncg     rms          rms(c)
DAV:   1    -0.177603271304E+03    0.18527E-02   -0.25357E+00  3276   0.289E+00    0.159E-01
RMM:   2    -0.177606343918E+03   -0.30726E-02   -0.31532E-02  3263   0.765E-01    0.219E-01
RMM:   3    -0.177607141858E+03   -0.79794E-03   -0.15490E-02  4156   0.355E-01    0.992E-02
RMM:   4    -0.177607163712E+03   -0.21855E-04   -0.17713E-03  4292   0.976E-02    0.784E-02
RMM:   5    -0.177607121539E+03    0.42173E-04   -0.18231E-04  3246   0.532E-02    0.689E-02
RMM:   6    -0.177607051307E+03    0.70233E-04   -0.20286E-04  3351   0.510E-02    0.282E-02
RMM:   7    -0.177607046239E+03    0.50680E-05   -0.85448E-05  3110   0.370E-02
  28 F= -.17760705E+03 E0= -.17758410E+03  d E =-.688421E-01
 Finite differences progress:
  Degree of freedom:  27/153
  Displacement:        1/  1
  Total:              27/153
 bond charge predicted
       N       E                     dE             d eps       ncg     rms          rms(c)
DAV:   1    -0.177600912334E+03    0.61390E-02   -0.25445E+00  3344   0.296E+00    0.120E-01
RMM:   2    -0.177603658915E+03   -0.27466E-02   -0.29807E-02  3260   0.741E-01    0.117E-01
RMM:   3    -0.177605154805E+03   -0.14959E-02   -0.17132E-02  4520   0.351E-01    0.934E-02
RMM:   4    -0.177605101470E+03    0.53334E-04   -0.73366E-04  4165   0.627E-02    0.759E-02
RMM:   5    -0.177605063187E+03    0.38283E-04   -0.92914E-05  3033   0.367E-02    0.686E-02
RMM:   6    -0.177604989462E+03    0.73725E-04   -0.22948E-04  3624   0.508E-02    0.364E-02
RMM:   7    -0.177604980962E+03    0.85004E-05   -0.12857E-04  3268   0.444E-02    0.189E-02
RMM:   8    -0.177604979720E+03    0.12415E-05   -0.40835E-05  2392   0.221E-02
  29 F= -.17760498E+03 E0= -.17758198E+03  d E =-.689888E-01
 Finite differences progress:
  Degree of freedom:  28/153
  Displacement:        1/  1
  Total:              28/153
 bond charge predicted
       N       E                     dE             d eps       ncg     rms          rms(c)
DAV:   1    -0.177598365149E+03    0.66158E-02   -0.25629E+00  3264   0.286E+00    0.103E-01
RMM:   2    -0.177601233012E+03   -0.28679E-02   -0.30190E-02  3263   0.746E-01    0.130E-01
RMM:   3    -0.177602580757E+03   -0.13477E-02   -0.16441E-02  4534   0.336E-01    0.761E-02
RMM:   4    -0.177602562163E+03    0.18594E-04   -0.51487E-04  3280   0.513E-02    0.688E-02
RMM:   5    -0.177602518389E+03    0.43774E-04   -0.99735E-05  2978   0.431E-02    0.586E-02
RMM:   6    -0.177602447816E+03    0.70573E-04   -0.22676E-04  3696   0.473E-02    0.288E-02
RMM:   7    -0.177602444865E+03    0.29508E-05   -0.67207E-05  2969   0.327E-02
  30 F= -.17760244E+03 E0= -.17757943E+03  d E =-.690591E-01
 Finite differences progress:
  Degree of freedom:  29/153
  Displacement:        1/  1
  Total:              29/153
 bond charge predicted
       N       E                     dE             d eps       ncg     rms          rms(c)
DAV:   1    -0.177603465945E+03   -0.10181E-02   -0.25701E+00  3316   0.285E+00    0.898E-02
RMM:   2    -0.177606164276E+03   -0.26983E-02   -0.28165E-02  3255   0.711E-01    0.763E-02
RMM:   3    -0.177607602872E+03   -0.14386E-02   -0.15548E-02  4549   0.318E-01    0.837E-02
RMM:   4    -0.177607567922E+03    0.34950E-04   -0.54354E-04  3937   0.531E-02    0.705E-02
RMM:   5    -0.177607535133E+03    0.32789E-04   -0.49413E-05  2332   0.228E-02    0.613E-02
RMM:   6    -0.177607470150E+03    0.64984E-04   -0.35000E-04  4196   0.531E-02    0.431E-02
RMM:   7    -0.177607467879E+03    0.22711E-05   -0.83244E-05  3212   0.371E-02
  31 F= -.17760747E+03 E0= -.17758444E+03  d E =-.690796E-01
 Finite differences progress:
  Degree of freedom:  30/153
  Displacement:        1/  1
  Total:              30/153
 bond charge predicted
       N       E                     dE             d eps       ncg     rms          rms(c)
DAV:   1    -0.177602811367E+03    0.46588E-02   -0.25629E+00  3336   0.292E+00    0.124E-01
RMM:   2    -0.177605698672E+03   -0.28873E-02   -0.31288E-02  3252   0.774E-01    0.159E-01
RMM:   3    -0.177606934400E+03   -0.12357E-02   -0.16739E-02  4485   0.359E-01    0.860E-02
RMM:   4    -0.177606916263E+03    0.18137E-04   -0.72940E-04  3488   0.603E-02    0.770E-02
RMM:   5    -0.177606858080E+03    0.58182E-04   -0.13261E-04  3179   0.495E-02    0.653E-02
RMM:   6    -0.177606774735E+03    0.83345E-04   -0.27096E-04  3609   0.553E-02    0.291E-02
RMM:   7    -0.177606770927E+03    0.38086E-05   -0.86441E-05  3154   0.369E-02
  32 F= -.17760677E+03 E0= -.17758374E+03  d E =-.691034E-01
 Finite differences progress:
  Degree of freedom:  31/153
  Displacement:        1/  1
  Total:              31/153
 bond charge predicted
       N       E                     dE             d eps       ncg     rms          rms(c)
DAV:   1    -0.177600871808E+03    0.59029E-02   -0.25532E+00  3252   0.288E+00    0.101E-01
RMM:   2    -0.177603698963E+03   -0.28272E-02   -0.29821E-02  3254   0.744E-01    0.115E-01
RMM:   3    -0.177605150055E+03   -0.14511E-02   -0.16796E-02  4535   0.338E-01    0.810E-02
RMM:   4    -0.177605120118E+03    0.29937E-04   -0.52272E-04  3320   0.523E-02    0.712E-02
RMM:   5    -0.177605054265E+03    0.65852E-04   -0.12764E-04  3153   0.486E-02    0.569E-02
RMM:   6    -0.177604997696E+03    0.56569E-04   -0.28325E-04  3729   0.532E-02    0.299E-02
RMM:   7    -0.177604990945E+03    0.67511E-05   -0.61012E-05  2942   0.320E-02
  33 F= -.17760499E+03 E0= -.17758202E+03  d E =-.689165E-01
 Finite differences progress:
  Degree of freedom:  32/153
  Displacement:        1/  1
  Total:              32/153
 bond charge predicted
       N       E                     dE             d eps       ncg     rms          rms(c)
DAV:   1    -0.177601366729E+03    0.36310E-02   -0.25654E+00  3260   0.289E+00    0.952E-02
RMM:   2    -0.177603994567E+03   -0.26278E-02   -0.27727E-02  3255   0.730E-01    0.830E-02
RMM:   3    -0.177605350640E+03   -0.13561E-02   -0.14775E-02  4554   0.315E-01    0.882E-02
RMM:   4    -0.177605292901E+03    0.57739E-04   -0.49153E-04  4074   0.518E-02    0.704E-02
RMM:   5    -0.177605254906E+03    0.37995E-04   -0.61600E-05  2672   0.307E-02    0.620E-02
RMM:   6    -0.177605192174E+03    0.62732E-04   -0.22618E-04  3898   0.469E-02    0.360E-02
RMM:   7    -0.177605179165E+03    0.13010E-04   -0.86546E-05  3160   0.377E-02    0.189E-02
RMM:   8    -0.177605176602E+03    0.25633E-05   -0.22916E-05  1935   0.172E-02
  34 F= -.17760518E+03 E0= -.17758220E+03  d E =-.689325E-01
 Finite differences progress:
  Degree of freedom:  33/153
  Displacement:        1/  1
  Total:              33/153
 bond charge predicted
       N       E                     dE             d eps       ncg     rms          rms(c)
DAV:   1    -0.177601113652E+03    0.40655E-02   -0.25653E+00  3304   0.293E+00    0.134E-01
RMM:   2    -0.177604098816E+03   -0.29852E-02   -0.32374E-02  3257   0.789E-01    0.183E-01
RMM:   3    -0.177605184536E+03   -0.10857E-02   -0.16805E-02  4418   0.373E-01    0.821E-02
RMM:   4    -0.177605198491E+03   -0.13955E-04   -0.10495E-03  3674   0.693E-02    0.747E-02
RMM:   5    -0.177605147433E+03    0.51057E-04   -0.12081E-04  3173   0.461E-02    0.635E-02
RMM:   6    -0.177605065823E+03    0.81611E-04   -0.22551E-04  3469   0.535E-02    0.305E-02
RMM:   7    -0.177605063916E+03    0.19066E-05   -0.10138E-04  3193   0.384E-02    0.195E-02
RMM:   8    -0.177605063221E+03    0.69514E-06   -0.39695E-05  2391   0.204E-02
  35 F= -.17760506E+03 E0= -.17758209E+03  d E =-.689231E-01
 Finite differences progress:
  Degree of freedom:  34/153
  Displacement:        1/  1
  Total:              34/153
 bond charge predicted
       N       E                     dE             d eps       ncg     rms          rms(c)
DAV:   1    -0.177601190672E+03    0.38732E-02   -0.25633E+00  3252   0.289E+00    0.916E-02
RMM:   2    -0.177603978005E+03   -0.27873E-02   -0.29065E-02  3261   0.731E-01    0.945E-02
RMM:   3    -0.177605454375E+03   -0.14764E-02   -0.16397E-02  4552   0.331E-01    0.776E-02
RMM:   4    -0.177605430446E+03    0.23929E-04   -0.51218E-04  3402   0.519E-02    0.681E-02
RMM:   5    -0.177605377182E+03    0.53264E-04   -0.97094E-05  3041   0.415E-02    0.546E-02
RMM:   6    -0.177605323664E+03    0.53518E-04   -0.28552E-04  3929   0.493E-02    0.310E-02
RMM:   7    -0.177605319846E+03    0.38186E-05   -0.54130E-05  2801   0.302E-02
  36 F= -.17760532E+03 E0= -.17758234E+03  d E =-.689399E-01
 Finite differences progress:
  Degree of freedom:  35/153
  Displacement:        1/  1
  Total:              35/153
 bond charge predicted
       N       E                     dE             d eps       ncg     rms          rms(c)
DAV:   1    -0.177601754821E+03    0.35688E-02   -0.25732E+00  3268   0.289E+00    0.906E-02
RMM:   2    -0.177604399340E+03   -0.26445E-02   -0.27742E-02  3251   0.726E-01    0.824E-02
RMM:   3    -0.177605752899E+03   -0.13536E-02   -0.14814E-02  4561   0.315E-01    0.825E-02
RMM:   4    -0.177605714123E+03    0.38776E-04   -0.46071E-04  3651   0.498E-02    0.694E-02
RMM:   5    -0.177605664719E+03    0.49404E-04   -0.66426E-05  2570   0.325E-02    0.557E-02
RMM:   6    -0.177605617916E+03    0.46803E-04   -0.31409E-04  4157   0.516E-02    0.368E-02
RMM:   7    -0.177605607135E+03    0.10781E-04   -0.60945E-05  3057   0.327E-02    0.221E-02
RMM:   8    -0.177605601824E+03    0.53110E-05   -0.13560E-05  1876   0.135E-02
  37 F= -.17760560E+03 E0= -.17758265E+03  d E =-.688476E-01
 Finite differences progress:
  Degree of freedom:  36/153
  Displacement:        1/  1
  Total:              36/153
 bond charge predicted
       N       E                     dE             d eps       ncg     rms          rms(c)
DAV:   1    -0.177601388307E+03    0.42188E-02   -0.25632E+00  3328   0.293E+00    0.125E-01
RMM:   2    -0.177604333274E+03   -0.29450E-02   -0.31731E-02  3251   0.785E-01    0.168E-01
RMM:   3    -0.177605517499E+03   -0.11842E-02   -0.16677E-02  4477   0.361E-01    0.819E-02
RMM:   4    -0.177605511751E+03    0.57478E-05   -0.78296E-04  3506   0.618E-02    0.741E-02
RMM:   5    -0.177605461374E+03    0.50377E-04   -0.13153E-04  3168   0.494E-02    0.627E-02
RMM:   6    -0.177605382606E+03    0.78768E-04   -0.23434E-04  3493   0.531E-02    0.253E-02
RMM:   7    -0.177605382346E+03    0.26052E-06   -0.83302E-05  3104   0.352E-02
  38 F= -.17760538E+03 E0= -.17758234E+03  d E =-.691340E-01
 Finite differences progress:
  Degree of freedom:  37/153
  Displacement:        1/  1
  Total:              37/153
 bond charge predicted
       N       E                     dE             d eps       ncg     rms          rms(c)
DAV:   1    -0.177600998852E+03    0.43838E-02   -0.25543E+00  3252   0.289E+00    0.101E-01
RMM:   2    -0.177603822531E+03   -0.28237E-02   -0.29832E-02  3249   0.747E-01    0.115E-01
RMM:   3    -0.177605259850E+03   -0.14373E-02   -0.16711E-02  4534   0.340E-01    0.815E-02
RMM:   4    -0.177605229671E+03    0.30179E-04   -0.52965E-04  3344   0.528E-02    0.717E-02
RMM:   5    -0.177605166993E+03    0.62678E-04   -0.12462E-04  3139   0.479E-02    0.587E-02
RMM:   6    -0.177605103727E+03    0.63266E-04   -0.28065E-04  3737   0.527E-02    0.290E-02
RMM:   7    -0.177605097946E+03    0.57809E-05   -0.61891E-05  2962   0.321E-02
  39 F= -.17760510E+03 E0= -.17758211E+03  d E =-.689763E-01
 Finite differences progress:
  Degree of freedom:  38/153
  Displacement:        1/  1
  Total:              38/153
 bond charge predicted
       N       E                     dE             d eps       ncg     rms          rms(c)
DAV:   1    -0.177602015386E+03    0.30883E-02   -0.25671E+00  3284   0.290E+00    0.958E-02
RMM:   2    -0.177604649878E+03   -0.26345E-02   -0.27830E-02  3252   0.733E-01    0.829E-02
RMM:   3    -0.177606014357E+03   -0.13645E-02   -0.14853E-02  4557   0.318E-01    0.888E-02
RMM:   4    -0.177605954519E+03    0.59838E-04   -0.49579E-04  4128   0.520E-02    0.706E-02
RMM:   5    -0.177605912607E+03    0.41912E-04   -0.57087E-05  2614   0.298E-02    0.607E-02
RMM:   6    -0.177605855445E+03    0.57162E-04   -0.25241E-04  4032   0.487E-02    0.384E-02
RMM:   7    -0.177605840832E+03    0.14613E-04   -0.82113E-05  3147   0.373E-02    0.202E-02
RMM:   8    -0.177605837236E+03    0.35956E-05   -0.19646E-05  1884   0.164E-02
  40 F= -.17760584E+03 E0= -.17758287E+03  d E =-.688954E-01
 Finite differences progress:
  Degree of freedom:  39/153
  Displacement:        1/  1
  Total:              39/153
 bond charge predicted
       N       E                     dE             d eps       ncg     rms          rms(c)
DAV:   1    -0.177601305233E+03    0.45356E-02   -0.25617E+00  3316   0.294E+00    0.130E-01
RMM:   2    -0.177604241188E+03   -0.29360E-02   -0.31831E-02  3248   0.784E-01    0.171E-01
RMM:   3    -0.177605420471E+03   -0.11793E-02   -0.16917E-02  4459   0.370E-01    0.838E-02
RMM:   4    -0.177605417980E+03    0.24910E-05   -0.92289E-04  3511   0.651E-02    0.751E-02
RMM:   5    -0.177605360607E+03    0.57374E-04   -0.13340E-04  3208   0.496E-02    0.632E-02
RMM:   6    -0.177605285017E+03    0.75590E-04   -0.22577E-04  3430   0.531E-02    0.336E-02
RMM:   7    -0.177605281006E+03    0.40115E-05   -0.10823E-04  3207   0.388E-02    0.204E-02
RMM:   8    -0.177605278994E+03    0.20117E-05   -0.37054E-05  2385   0.212E-02
  41 F= -.17760528E+03 E0= -.17758230E+03  d E =-.689341E-01
 Finite differences progress:
  Degree of freedom:  40/153
  Displacement:        1/  1
  Total:              40/153
 bond charge predicted
       N       E                     dE             d eps       ncg     rms          rms(c)
DAV:   1    -0.177599724148E+03    0.55569E-02   -0.25570E+00  3252   0.289E+00    0.992E-02
RMM:   2    -0.177602535229E+03   -0.28111E-02   -0.29656E-02  3249   0.744E-01    0.112E-01
RMM:   3    -0.177603970256E+03   -0.14350E-02   -0.16545E-02  4522   0.337E-01    0.799E-02
RMM:   4    -0.177603944006E+03    0.26250E-04   -0.54404E-04  3327   0.529E-02    0.703E-02
RMM:   5    -0.177603876848E+03    0.67159E-04   -0.13128E-04  3179   0.498E-02    0.558E-02
RMM:   6    -0.177603821891E+03    0.54956E-04   -0.26783E-04  3677   0.520E-02    0.287E-02
RMM:   7    -0.177603816526E+03    0.53658E-05   -0.60790E-05  2875   0.316E-02
  42 F= -.17760382E+03 E0= -.17758082E+03  d E =-.690039E-01
 Finite differences progress:
  Degree of freedom:  41/153
  Displacement:        1/  1
  Total:              41/153
 bond charge predicted
       N       E                     dE             d eps       ncg     rms          rms(c)
DAV:   1    -0.177601561536E+03    0.22604E-02   -0.25657E+00  3260   0.290E+00    0.952E-02
RMM:   2    -0.177604223022E+03   -0.26615E-02   -0.28054E-02  3251   0.734E-01    0.798E-02
RMM:   3    -0.177605617594E+03   -0.13946E-02   -0.15123E-02  4557   0.320E-01    0.883E-02
RMM:   4    -0.177605562867E+03    0.54727E-04   -0.52197E-04  4191   0.531E-02    0.705E-02
RMM:   5    -0.177605521655E+03    0.41212E-04   -0.43778E-05  2253   0.253E-02    0.595E-02
RMM:   6    -0.177605465834E+03    0.55821E-04   -0.30187E-04  4197   0.517E-02    0.390E-02
RMM:   7    -0.177605455608E+03    0.10225E-04   -0.78771E-05  3134   0.367E-02    0.251E-02
RMM:   8    -0.177605448925E+03    0.66834E-05   -0.16717E-05  1881   0.160E-02
  43 F= -.17760545E+03 E0= -.17758249E+03  d E =-.688715E-01
 Finite differences progress:
  Degree of freedom:  42/153
  Displacement:        1/  1
  Total:              42/153
 bond charge predicted
       N       E                     dE             d eps       ncg     rms          rms(c)
DAV:   1    -0.177599246547E+03    0.62091E-02   -0.25612E+00  3344   0.294E+00    0.130E-01
RMM:   2    -0.177602182085E+03   -0.29355E-02   -0.31849E-02  3248   0.781E-01    0.169E-01
RMM:   3    -0.177603395570E+03   -0.12135E-02   -0.17171E-02  4467   0.370E-01    0.846E-02
RMM:   4    -0.177603385439E+03    0.10131E-04   -0.84109E-04  3505   0.633E-02    0.755E-02
RMM:   5    -0.177603320942E+03    0.64497E-04   -0.14309E-04  3224   0.514E-02    0.618E-02
RMM:   6    -0.177603250841E+03    0.70101E-04   -0.24451E-04  3468   0.551E-02    0.314E-02
RMM:   7    -0.177603247340E+03    0.35017E-05   -0.95353E-05  3161   0.378E-02
  44 F= -.17760325E+03 E0= -.17758029E+03  d E =-.688739E-01
 Finite differences progress:
  Degree of freedom:  43/153
  Displacement:        1/  1
  Total:              43/153
 bond charge predicted
       N       E                     dE             d eps       ncg     rms          rms(c)
DAV:   1    -0.177600979614E+03    0.22712E-02   -0.25541E+00  3260   0.288E+00    0.102E-01
RMM:   2    -0.177603807544E+03   -0.28279E-02   -0.29881E-02  3253   0.746E-01    0.118E-01
RMM:   3    -0.177605240813E+03   -0.14333E-02   -0.16732E-02  4529   0.339E-01    0.812E-02
RMM:   4    -0.177605212165E+03    0.28647E-04   -0.53760E-04  3297   0.526E-02    0.717E-02
RMM:   5    -0.177605141138E+03    0.71027E-04   -0.13348E-04  3181   0.501E-02    0.561E-02
RMM:   6    -0.177605087685E+03    0.53453E-04   -0.26340E-04  3650   0.515E-02    0.322E-02
RMM:   7    -0.177605080333E+03    0.73524E-05   -0.66650E-05  2976   0.327E-02
  45 F= -.17760508E+03 E0= -.17758211E+03  d E =-.689230E-01
 Finite differences progress:
  Degree of freedom:  44/153
  Displacement:        1/  1
  Total:              44/153
 bond charge predicted
       N       E                     dE             d eps       ncg     rms          rms(c)
DAV:   1    -0.177601355908E+03    0.37318E-02   -0.25650E+00  3264   0.289E+00    0.955E-02
RMM:   2    -0.177603987943E+03   -0.26320E-02   -0.27804E-02  3254   0.730E-01    0.830E-02
RMM:   3    -0.177605350293E+03   -0.13624E-02   -0.14882E-02  4556   0.316E-01    0.877E-02
RMM:   4    -0.177605294074E+03    0.56219E-04   -0.49323E-04  4013   0.515E-02    0.704E-02
RMM:   5    -0.177605247599E+03    0.46475E-04   -0.61041E-05  2663   0.305E-02    0.592E-02
RMM:   6    -0.177605197382E+03    0.50217E-04   -0.25942E-04  4007   0.500E-02    0.400E-02
RMM:   7    -0.177605180647E+03    0.16735E-04   -0.75352E-05  3138   0.353E-02    0.191E-02
RMM:   8    -0.177605177350E+03    0.32970E-05   -0.18209E-05  1876   0.159E-02
  46 F= -.17760518E+03 E0= -.17758220E+03  d E =-.689344E-01
 Finite differences progress:
  Degree of freedom:  45/153
  Displacement:        1/  1
  Total:              45/153
 bond charge predicted
       N       E                     dE             d eps       ncg     rms          rms(c)
DAV:   1    -0.177601082412E+03    0.40982E-02   -0.25608E+00  3324   0.292E+00    0.132E-01
RMM:   2    -0.177604035949E+03   -0.29535E-02   -0.32015E-02  3250   0.779E-01    0.175E-01
RMM:   3    -0.177605204571E+03   -0.11686E-02   -0.17089E-02  4427   0.370E-01    0.833E-02
RMM:   4    -0.177605207670E+03   -0.30988E-05   -0.97629E-04  3510   0.669E-02    0.749E-02
RMM:   5    -0.177605139102E+03    0.68569E-04   -0.13713E-04  3226   0.502E-02    0.594E-02
RMM:   6    -0.177605073413E+03    0.65688E-04   -0.24120E-04  3459   0.552E-02    0.312E-02
RMM:   7    -0.177605069710E+03    0.37031E-05   -0.91317E-05  3158   0.371E-02
  47 F= -.17760507E+03 E0= -.17758208E+03  d E =-.689840E-01
 Finite differences progress:
  Degree of freedom:  46/153
  Displacement:        1/  1
  Total:              46/153
 bond charge predicted
       N       E                     dE             d eps       ncg     rms          rms(c)
DAV:   1    -0.177601135627E+03    0.39378E-02   -0.25546E+00  3256   0.285E+00    0.101E-01
RMM:   2    -0.177603957631E+03   -0.28220E-02   -0.29794E-02  3254   0.734E-01    0.118E-01
RMM:   3    -0.177605386645E+03   -0.14290E-02   -0.16710E-02  4537   0.333E-01    0.802E-02
RMM:   4    -0.177605357935E+03    0.28710E-04   -0.51469E-04  3274   0.512E-02    0.711E-02
RMM:   5    -0.177605289468E+03    0.68467E-04   -0.13005E-04  3166   0.491E-02    0.567E-02
RMM:   6    -0.177605234772E+03    0.54696E-04   -0.27465E-04  3675   0.529E-02    0.303E-02
RMM:   7    -0.177605228100E+03    0.66721E-05   -0.58631E-05  2870   0.309E-02
  48 F= -.17760523E+03 E0= -.17758225E+03  d E =-.689217E-01
 Finite differences progress:
  Degree of freedom:  47/153
  Displacement:        1/  1
  Total:              47/153
 bond charge predicted
       N       E                     dE             d eps       ncg     rms          rms(c)
DAV:   1    -0.177601739352E+03    0.34954E-02   -0.25654E+00  3296   0.283E+00    0.935E-02
RMM:   2    -0.177604382215E+03   -0.26429E-02   -0.27849E-02  3251   0.714E-01    0.842E-02
RMM:   3    -0.177605746612E+03   -0.13644E-02   -0.14931E-02  4517   0.310E-01    0.857E-02
RMM:   4    -0.177605695357E+03    0.51255E-04   -0.48459E-04  3730   0.508E-02    0.698E-02
RMM:   5    -0.177605647950E+03    0.47407E-04   -0.74464E-05  2761   0.340E-02    0.590E-02
RMM:   6    -0.177605594290E+03    0.53660E-04   -0.26185E-04  3895   0.500E-02    0.384E-02
RMM:   7    -0.177605579965E+03    0.14324E-04   -0.76961E-05  3120   0.364E-02    0.191E-02
RMM:   8    -0.177605576377E+03    0.35887E-05   -0.18086E-05  1872   0.151E-02
  49 F= -.17760558E+03 E0= -.17758259E+03  d E =-.689519E-01
 Finite differences progress:
  Degree of freedom:  48/153
  Displacement:        1/  1
  Total:              48/153
 bond charge predicted
       N       E                     dE             d eps       ncg     rms          rms(c)
DAV:   1    -0.177601263382E+03    0.43166E-02   -0.25614E+00  3320   0.293E+00    0.128E-01
RMM:   2    -0.177604211072E+03   -0.29477E-02   -0.31868E-02  3250   0.783E-01    0.172E-01
RMM:   3    -0.177605359475E+03   -0.11484E-02   -0.16632E-02  4415   0.366E-01    0.824E-02
RMM:   4    -0.177605372533E+03   -0.13059E-04   -0.10233E-03  3556   0.691E-02    0.747E-02
RMM:   5    -0.177605310548E+03    0.61986E-04   -0.13854E-04  3214   0.500E-02    0.619E-02
RMM:   6    -0.177605236041E+03    0.74506E-04   -0.25177E-04  3500   0.557E-02    0.297E-02
RMM:   7    -0.177605233037E+03    0.30040E-05   -0.90743E-05  3173   0.376E-02
  50 F= -.17760523E+03 E0= -.17758223E+03  d E =-.689986E-01
 Finite differences progress:
  Degree of freedom:  49/153
  Displacement:        1/  1
  Total:              49/153
 bond charge predicted
       N       E                     dE             d eps       ncg     rms          rms(c)
DAV:   1    -0.177600850361E+03    0.43857E-02   -0.25560E+00  3268   0.288E+00    0.102E-01
RMM:   2    -0.177603671612E+03   -0.28213E-02   -0.29833E-02  3258   0.740E-01    0.118E-01
RMM:   3    -0.177605099271E+03   -0.14277E-02   -0.16694E-02  4518   0.338E-01    0.814E-02
RMM:   4    -0.177605071012E+03    0.28259E-04   -0.54593E-04  3374   0.533E-02    0.717E-02
RMM:   5    -0.177605021425E+03    0.49587E-04   -0.10769E-04  2977   0.437E-02    0.619E-02
RMM:   6    -0.177604946118E+03    0.75307E-04   -0.27082E-04  3793   0.509E-02    0.314E-02
RMM:   7    -0.177604940131E+03    0.59868E-05   -0.67407E-05  3112   0.337E-02
  51 F= -.17760494E+03 E0= -.17758191E+03  d E =-.690848E-01
 Finite differences progress:
  Degree of freedom:  50/153
  Displacement:        1/  1
  Total:              50/153
 bond charge predicted
       N       E                     dE             d eps       ncg     rms          rms(c)
DAV:   1    -0.177599279672E+03    0.56664E-02   -0.25666E+00  3252   0.290E+00    0.124E-01
RMM:   2    -0.177602084158E+03   -0.28045E-02   -0.30237E-02  3253   0.756E-01    0.159E-01
RMM:   3    -0.177603181381E+03   -0.10972E-02   -0.15431E-02  4415   0.346E-01    0.823E-02
RMM:   4    -0.177603181613E+03   -0.23148E-06   -0.84458E-04  3494   0.633E-02    0.731E-02
RMM:   5    -0.177603135724E+03    0.45888E-04   -0.13287E-04  3220   0.491E-02    0.661E-02
RMM:   6    -0.177603053066E+03    0.82659E-04   -0.24605E-04  3558   0.532E-02    0.287E-02
RMM:   7    -0.177603050219E+03    0.28464E-05   -0.76466E-05  3106   0.346E-02
  52 F= -.17760305E+03 E0= -.17758002E+03  d E =-.690803E-01
 Finite differences progress:
  Degree of freedom:  51/153
  Displacement:        1/  1
  Total:              51/153
 bond charge predicted
       N       E                     dE             d eps       ncg     rms          rms(c)
DAV:   1    -0.177601113876E+03    0.19392E-02   -0.25567E+00  3324   0.292E+00    0.105E-01
RMM:   2    -0.177603918315E+03   -0.28044E-02   -0.29830E-02  3252   0.753E-01    0.121E-01
RMM:   3    -0.177605328380E+03   -0.14101E-02   -0.16641E-02  4542   0.345E-01    0.854E-02
RMM:   4    -0.177605288837E+03    0.39543E-04   -0.55386E-04  3630   0.550E-02    0.744E-02
RMM:   5    -0.177605244696E+03    0.44141E-04   -0.10176E-04  3011   0.420E-02    0.653E-02
RMM:   6    -0.177605164307E+03    0.80389E-04   -0.24171E-04  3691   0.510E-02    0.396E-02
RMM:   7    -0.177605150149E+03    0.14158E-04   -0.11033E-04  3201   0.432E-02    0.177E-02
RMM:   8    -0.177605149310E+03    0.83917E-06   -0.34257E-05  2228   0.186E-02
  53 F= -.17760515E+03 E0= -.17758216E+03  d E =-.689813E-01
 Finite differences progress:
  Degree of freedom:  52/153
  Displacement:        1/  1
  Total:              52/153
 bond charge predicted
       N       E                     dE             d eps       ncg     rms          rms(c)
DAV:   1    -0.177600538948E+03    0.46112E-02   -0.25574E+00  3252   0.286E+00    0.999E-02
RMM:   2    -0.177603356273E+03   -0.28173E-02   -0.29710E-02  3258   0.734E-01    0.115E-01
RMM:   3    -0.177604795169E+03   -0.14389E-02   -0.16668E-02  4544   0.334E-01    0.801E-02
RMM:   4    -0.177604764029E+03    0.31139E-04   -0.50474E-04  3307   0.510E-02    0.703E-02
RMM:   5    -0.177604706103E+03    0.57927E-04   -0.11779E-04  3096   0.464E-02    0.581E-02
RMM:   6    -0.177604642557E+03    0.63546E-04   -0.27665E-04  3746   0.520E-02    0.279E-02
RMM:   7    -0.177604637116E+03    0.54408E-05   -0.56393E-05  2803   0.307E-02
  54 F= -.17760464E+03 E0= -.17758164E+03  d E =-.689778E-01
 Finite differences progress:
  Degree of freedom:  53/153
  Displacement:        1/  1
  Total:              53/153
 bond charge predicted
       N       E                     dE             d eps       ncg     rms          rms(c)
DAV:   1    -0.177599327837E+03    0.53147E-02   -0.25686E+00  3276   0.285E+00    0.124E-01
RMM:   2    -0.177602133857E+03   -0.28060E-02   -0.30239E-02  3247   0.745E-01    0.159E-01
RMM:   3    -0.177603220969E+03   -0.10871E-02   -0.15318E-02  4353   0.341E-01    0.827E-02
RMM:   4    -0.177603229247E+03   -0.82782E-05   -0.94389E-04  3675   0.669E-02    0.732E-02
RMM:   5    -0.177603181321E+03    0.47926E-04   -0.12767E-04  3154   0.465E-02    0.654E-02
RMM:   6    -0.177603099198E+03    0.82124E-04   -0.26148E-04  3611   0.531E-02    0.260E-02
RMM:   7    -0.177603095969E+03    0.32284E-05   -0.59661E-05  2786   0.295E-02
  55 F= -.17760310E+03 E0= -.17758008E+03  d E =-.690624E-01
 Finite differences progress:
  Degree of freedom:  54/153
  Displacement:        1/  1
  Total:              54/153
 bond charge predicted
       N       E                     dE             d eps       ncg     rms          rms(c)
DAV:   1    -0.177600980277E+03    0.21189E-02   -0.25591E+00  3348   0.292E+00    0.106E-01
RMM:   2    -0.177603781355E+03   -0.28011E-02   -0.29777E-02  3255   0.752E-01    0.121E-01
RMM:   3    -0.177605189092E+03   -0.14077E-02   -0.16655E-02  4547   0.346E-01    0.852E-02
RMM:   4    -0.177605149807E+03    0.39285E-04   -0.54398E-04  3690   0.544E-02    0.743E-02
RMM:   5    -0.177605101989E+03    0.47818E-04   -0.10605E-04  3044   0.428E-02    0.645E-02
RMM:   6    -0.177605022789E+03    0.79200E-04   -0.26027E-04  3753   0.519E-02    0.366E-02
RMM:   7    -0.177605011477E+03    0.11312E-04   -0.94000E-05  3197   0.399E-02    0.180E-02
RMM:   8    -0.177605009863E+03    0.16140E-05   -0.27344E-05  2055   0.172E-02
  56 F= -.17760501E+03 E0= -.17758199E+03  d E =-.690712E-01
 Finite differences progress:
  Degree of freedom:  55/153
  Displacement:        1/  1
  Total:              55/153
 bond charge predicted
       N       E                     dE             d eps       ncg     rms          rms(c)
DAV:   1    -0.177600666928E+03    0.43445E-02   -0.25586E+00  3264   0.289E+00    0.985E-02
RMM:   2    -0.177603479785E+03   -0.28129E-02   -0.29595E-02  3261   0.740E-01    0.109E-01
RMM:   3    -0.177604928415E+03   -0.14486E-02   -0.16573E-02  4530   0.335E-01    0.790E-02
RMM:   4    -0.177604901877E+03    0.26539E-04   -0.52393E-04  3334   0.522E-02    0.695E-02
RMM:   5    -0.177604845672E+03    0.56205E-04   -0.11416E-04  3124   0.461E-02    0.569E-02
RMM:   6    -0.177604784994E+03    0.60678E-04   -0.26176E-04  3765   0.498E-02    0.288E-02
RMM:   7    -0.177604779864E+03    0.51300E-05   -0.58448E-05  2872   0.310E-02
  57 F= -.17760478E+03 E0= -.17758177E+03  d E =-.690319E-01
 Finite differences progress:
  Degree of freedom:  56/153
  Displacement:        1/  1
  Total:              56/153
 bond charge predicted
       N       E                     dE             d eps       ncg     rms          rms(c)
DAV:   1    -0.177598207582E+03    0.65774E-02   -0.25693E+00  3272   0.290E+00    0.122E-01
RMM:   2    -0.177600996067E+03   -0.27885E-02   -0.30083E-02  3248   0.756E-01    0.151E-01
RMM:   3    -0.177602135070E+03   -0.11390E-02   -0.15504E-02  4451   0.345E-01    0.823E-02
RMM:   4    -0.177602123530E+03    0.11540E-04   -0.71002E-04  3448   0.589E-02    0.726E-02
RMM:   5    -0.177602075237E+03    0.48294E-04   -0.14719E-04  3230   0.520E-02    0.655E-02
RMM:   6    -0.177601996270E+03    0.78966E-04   -0.23564E-04  3502   0.528E-02    0.252E-02
RMM:   7    -0.177601995637E+03    0.63366E-06   -0.70652E-05  2966   0.307E-02
  58 F= -.17760200E+03 E0= -.17757902E+03  d E =-.689419E-01
 Finite differences progress:
  Degree of freedom:  57/153
  Displacement:        1/  1
  Total:              57/153
 bond charge predicted
       N       E                     dE             d eps       ncg     rms          rms(c)
DAV:   1    -0.177600890777E+03    0.11055E-02   -0.25593E+00  3356   0.294E+00    0.106E-01
RMM:   2    -0.177603688944E+03   -0.27982E-02   -0.29835E-02  3251   0.758E-01    0.121E-01
RMM:   3    -0.177605094311E+03   -0.14054E-02   -0.16630E-02  4552   0.347E-01    0.856E-02
RMM:   4    -0.177605053397E+03    0.40913E-04   -0.53361E-04  3670   0.543E-02    0.743E-02
RMM:   5    -0.177604998466E+03    0.54932E-04   -0.10831E-04  3100   0.436E-02    0.622E-02
RMM:   6    -0.177604925038E+03    0.73428E-04   -0.28443E-04  3843   0.529E-02    0.330E-02
RMM:   7    -0.177604916064E+03    0.89734E-05   -0.81909E-05  3161   0.374E-02
  59 F= -.17760492E+03 E0= -.17758196E+03  d E =-.688639E-01
 Finite differences progress:
  Degree of freedom:  58/153
  Displacement:        1/  1
  Total:              58/153
 bond charge predicted
       N       E                     dE             d eps       ncg     rms          rms(c)
DAV:   1    -0.177601969856E+03    0.29552E-02   -0.25559E+00  3256   0.290E+00    0.996E-02
RMM:   2    -0.177604785819E+03   -0.28160E-02   -0.29661E-02  3258   0.744E-01    0.114E-01
RMM:   3    -0.177606217440E+03   -0.14316E-02   -0.16552E-02  4527   0.336E-01    0.801E-02
RMM:   4    -0.177606189203E+03    0.28237E-04   -0.52673E-04  3348   0.527E-02    0.703E-02
RMM:   5    -0.177606129469E+03    0.59733E-04   -0.11861E-04  3102   0.466E-02    0.572E-02
RMM:   6    -0.177606068624E+03    0.60845E-04   -0.26887E-04  3739   0.519E-02    0.281E-02
RMM:   7    -0.177606063274E+03    0.53499E-05   -0.57878E-05  2819   0.306E-02
  60 F= -.17760606E+03 E0= -.17758305E+03  d E =-.690510E-01
 Finite differences progress:
  Degree of freedom:  59/153
  Displacement:        1/  1
  Total:              59/153
 bond charge predicted
       N       E                     dE             d eps       ncg     rms          rms(c)
DAV:   1    -0.177598635930E+03    0.74327E-02   -0.25664E+00  3256   0.291E+00    0.124E-01
RMM:   2    -0.177601436185E+03   -0.28003E-02   -0.30156E-02  3252   0.756E-01    0.156E-01
RMM:   3    -0.177602550804E+03   -0.11146E-02   -0.15459E-02  4411   0.347E-01    0.822E-02
RMM:   4    -0.177602553972E+03   -0.31677E-05   -0.86267E-04  3496   0.638E-02    0.730E-02
RMM:   5    -0.177602502403E+03    0.51569E-04   -0.14295E-04  3228   0.508E-02    0.643E-02
RMM:   6    -0.177602425260E+03    0.77143E-04   -0.24798E-04  3526   0.543E-02    0.261E-02
RMM:   7    -0.177602422843E+03    0.24170E-05   -0.68462E-05  2960   0.318E-02
  61 F= -.17760242E+03 E0= -.17757945E+03  d E =-.689187E-01
 Finite differences progress:
  Degree of freedom:  60/153
  Displacement:        1/  1
  Total:              60/153
 bond charge predicted
       N       E                     dE             d eps       ncg     rms          rms(c)
DAV:   1    -0.177600596618E+03    0.18286E-02   -0.25584E+00  3328   0.294E+00    0.105E-01
RMM:   2    -0.177603362687E+03   -0.27661E-02   -0.29468E-02  3253   0.757E-01    0.118E-01
RMM:   3    -0.177604763015E+03   -0.14003E-02   -0.16368E-02  4552   0.342E-01    0.857E-02
RMM:   4    -0.177604715754E+03    0.47260E-04   -0.50897E-04  3676   0.533E-02    0.741E-02
RMM:   5    -0.177604656887E+03    0.58868E-04   -0.10778E-04  3097   0.433E-02    0.608E-02
RMM:   6    -0.177604585232E+03    0.71655E-04   -0.29173E-04  3898   0.520E-02    0.323E-02
RMM:   7    -0.177604576516E+03    0.87156E-05   -0.75890E-05  3142   0.358E-02
  62 F= -.17760458E+03 E0= -.17758153E+03  d E =-.691369E-01
 Finite differences progress:
  Degree of freedom:  61/153
  Displacement:        1/  1
  Total:              61/153
 bond charge predicted
       N       E                     dE             d eps       ncg     rms          rms(c)
DAV:   1    -0.177600938239E+03    0.36470E-02   -0.25553E+00  3252   0.290E+00    0.100E-01
RMM:   2    -0.177603776414E+03   -0.28382E-02   -0.29857E-02  3258   0.746E-01    0.118E-01
RMM:   3    -0.177605207765E+03   -0.14314E-02   -0.16730E-02  4530   0.339E-01    0.796E-02
RMM:   4    -0.177605182193E+03    0.25572E-04   -0.53823E-04  3315   0.528E-02    0.704E-02
RMM:   5    -0.177605123680E+03    0.58512E-04   -0.11902E-04  3100   0.471E-02    0.578E-02
RMM:   6    -0.177605062422E+03    0.61258E-04   -0.26015E-04  3731   0.510E-02    0.302E-02
RMM:   7    -0.177605056455E+03    0.59668E-05   -0.60009E-05  2847   0.301E-02
  63 F= -.17760506E+03 E0= -.17758208E+03  d E =-.689395E-01
 Finite differences progress:
  Degree of freedom:  62/153
  Displacement:        1/  1
  Total:              62/153
 bond charge predicted
       N       E                     dE             d eps       ncg     rms          rms(c)
DAV:   1    -0.177599195025E+03    0.58674E-02   -0.25672E+00  3272   0.291E+00    0.124E-01
RMM:   2    -0.177601982493E+03   -0.27875E-02   -0.30038E-02  3248   0.759E-01    0.155E-01
RMM:   3    -0.177603078148E+03   -0.10957E-02   -0.15296E-02  4436   0.346E-01    0.825E-02
RMM:   4    -0.177603073433E+03    0.47148E-05   -0.78576E-04  3433   0.609E-02    0.730E-02
RMM:   5    -0.177603021068E+03    0.52366E-04   -0.15410E-04  3231   0.537E-02    0.653E-02
RMM:   6    -0.177602943567E+03    0.77501E-04   -0.23545E-04  3466   0.539E-02    0.273E-02
RMM:   7    -0.177602942188E+03    0.13786E-05   -0.77776E-05  3059   0.326E-02
  64 F= -.17760294E+03 E0= -.17757995E+03  d E =-.689878E-01
 Finite differences progress:
  Degree of freedom:  63/153
  Displacement:        1/  1
  Total:              63/153
 bond charge predicted
       N       E                     dE             d eps       ncg     rms          rms(c)
DAV:   1    -0.177601547828E+03    0.13957E-02   -0.25592E+00  3320   0.294E+00    0.105E-01
RMM:   2    -0.177604327908E+03   -0.27801E-02   -0.29577E-02  3251   0.757E-01    0.117E-01
RMM:   3    -0.177605731470E+03   -0.14036E-02   -0.16444E-02  4550   0.345E-01    0.857E-02
RMM:   4    -0.177605687588E+03    0.43882E-04   -0.50934E-04  3489   0.535E-02    0.742E-02
RMM:   5    -0.177605623018E+03    0.64569E-04   -0.11806E-04  3087   0.459E-02    0.596E-02
RMM:   6    -0.177605556913E+03    0.66105E-04   -0.28498E-04  3815   0.524E-02    0.306E-02
RMM:   7    -0.177605549661E+03    0.72527E-05   -0.73413E-05  3098   0.348E-02
  65 F= -.17760555E+03 E0= -.17758254E+03  d E =-.690302E-01
 Finite differences progress:
  Degree of freedom:  64/153
  Displacement:        1/  1
  Total:              64/153
 bond charge predicted
       N       E                     dE             d eps       ncg     rms          rms(c)
DAV:   1    -0.177600907006E+03    0.46499E-02   -0.25568E+00  3260   0.289E+00    0.991E-02
RMM:   2    -0.177603725382E+03   -0.28184E-02   -0.29658E-02  3258   0.741E-01    0.115E-01
RMM:   3    -0.177605149999E+03   -0.14246E-02   -0.16537E-02  4529   0.336E-01    0.794E-02
RMM:   4    -0.177605124407E+03    0.25592E-04   -0.52729E-04  3337   0.525E-02    0.702E-02
RMM:   5    -0.177605070161E+03    0.54246E-04   -0.11166E-04  3026   0.451E-02    0.588E-02
RMM:   6    -0.177605005482E+03    0.64678E-04   -0.27115E-04  3765   0.515E-02    0.311E-02
RMM:   7    -0.177604999638E+03    0.58440E-05   -0.62793E-05  3036   0.324E-02
  66 F= -.17760500E+03 E0= -.17758200E+03  d E =-.689979E-01
 Finite differences progress:
  Degree of freedom:  65/153
  Displacement:        1/  1
  Total:              65/153
 bond charge predicted
       N       E                     dE             d eps       ncg     rms          rms(c)
DAV:   1    -0.177599085363E+03    0.59201E-02   -0.25671E+00  3272   0.290E+00    0.123E-01
RMM:   2    -0.177601897918E+03   -0.28126E-02   -0.30282E-02  3253   0.757E-01    0.157E-01
RMM:   3    -0.177603008792E+03   -0.11109E-02   -0.15503E-02  4406   0.347E-01    0.818E-02
RMM:   4    -0.177603012164E+03   -0.33721E-05   -0.84372E-04  3509   0.637E-02    0.731E-02
RMM:   5    -0.177602960923E+03    0.51242E-04   -0.13772E-04  3222   0.501E-02    0.647E-02
RMM:   6    -0.177602885540E+03    0.75382E-04   -0.24038E-04  3507   0.541E-02    0.303E-02
RMM:   7    -0.177602882324E+03    0.32161E-05   -0.79814E-05  3144   0.353E-02
  67 F= -.17760288E+03 E0= -.17757990E+03  d E =-.689475E-01
 Finite differences progress:
  Degree of freedom:  66/153
  Displacement:        1/  1
  Total:              66/153
 bond charge predicted
       N       E                     dE             d eps       ncg     rms          rms(c)
DAV:   1    -0.177601239901E+03    0.16456E-02   -0.25583E+00  3372   0.294E+00    0.104E-01
RMM:   2    -0.177604029272E+03   -0.27894E-02   -0.29677E-02  3251   0.754E-01    0.114E-01
RMM:   3    -0.177605464079E+03   -0.14348E-02   -0.16670E-02  4545   0.347E-01    0.851E-02
RMM:   4    -0.177605423282E+03    0.40797E-04   -0.52424E-04  3492   0.544E-02    0.738E-02
RMM:   5    -0.177605379534E+03    0.43748E-04   -0.10874E-04  3064   0.441E-02    0.648E-02
RMM:   6    -0.177605302738E+03    0.76796E-04   -0.23707E-04  3669   0.506E-02    0.394E-02
RMM:   7    -0.177605288777E+03    0.13961E-04   -0.11133E-04  3200   0.434E-02    0.175E-02
RMM:   8    -0.177605287786E+03    0.99133E-06   -0.33357E-05  2189   0.185E-02
  68 F= -.17760529E+03 E0= -.17758232E+03  d E =-.689044E-01
 Finite differences progress:
  Degree of freedom:  67/153
  Displacement:        1/  1
  Total:              67/153
 bond charge predicted
       N       E                     dE             d eps       ncg     rms          rms(c)
DAV:   1    -0.177600650813E+03    0.46380E-02   -0.25575E+00  3256   0.289E+00    0.998E-02
RMM:   2    -0.177603482327E+03   -0.28315E-02   -0.29831E-02  3258   0.742E-01    0.114E-01
RMM:   3    -0.177604925992E+03   -0.14437E-02   -0.16757E-02  4534   0.338E-01    0.783E-02
RMM:   4    -0.177604901497E+03    0.24495E-04   -0.53052E-04  3312   0.521E-02    0.693E-02
RMM:   5    -0.177604846464E+03    0.55033E-04   -0.11035E-04  3093   0.456E-02    0.563E-02
RMM:   6    -0.177604785119E+03    0.61344E-04   -0.25584E-04  3747   0.490E-02    0.293E-02
RMM:   7    -0.177604779946E+03    0.51734E-05   -0.61310E-05  2968   0.322E-02
  69 F= -.17760478E+03 E0= -.17758176E+03  d E =-.690498E-01
 Finite differences progress:
  Degree of freedom:  68/153
  Displacement:        1/  1
  Total:              68/153
 bond charge predicted
       N       E                     dE             d eps       ncg     rms          rms(c)
DAV:   1    -0.177598192914E+03    0.65922E-02   -0.25690E+00  3272   0.290E+00    0.123E-01
RMM:   2    -0.177600991177E+03   -0.27983E-02   -0.30191E-02  3250   0.756E-01    0.153E-01
RMM:   3    -0.177602136777E+03   -0.11456E-02   -0.15632E-02  4454   0.346E-01    0.822E-02
RMM:   4    -0.177602125470E+03    0.11307E-04   -0.71097E-04  3450   0.589E-02    0.727E-02
RMM:   5    -0.177602073946E+03    0.51524E-04   -0.14365E-04  3230   0.515E-02    0.640E-02
RMM:   6    -0.177601996621E+03    0.77325E-04   -0.23821E-04  3499   0.536E-02    0.243E-02
RMM:   7    -0.177601995214E+03    0.14064E-05   -0.67123E-05  2932   0.304E-02
  70 F= -.17760200E+03 E0= -.17757901E+03  d E =-.689484E-01
 Finite differences progress:
  Degree of freedom:  69/153
  Displacement:        1/  1
  Total:              69/153
 bond charge predicted
       N       E                     dE             d eps       ncg     rms          rms(c)
DAV:   1    -0.177601106221E+03    0.89040E-03   -0.25592E+00  3340   0.292E+00    0.105E-01
RMM:   2    -0.177603900342E+03   -0.27941E-02   -0.29723E-02  3249   0.753E-01    0.117E-01
RMM:   3    -0.177605316925E+03   -0.14166E-02   -0.16593E-02  4541   0.344E-01    0.850E-02
RMM:   4    -0.177605276487E+03    0.40437E-04   -0.52211E-04  3473   0.540E-02    0.737E-02
RMM:   5    -0.177605220442E+03    0.56045E-04   -0.11180E-04  3032   0.444E-02    0.608E-02
RMM:   6    -0.177605151564E+03    0.68878E-04   -0.27487E-04  3807   0.515E-02    0.343E-02
RMM:   7    -0.177605141684E+03    0.98800E-05   -0.81063E-05  3160   0.370E-02
  71 F= -.17760514E+03 E0= -.17758214E+03  d E =-.689983E-01
 Finite differences progress:
  Degree of freedom:  70/153
  Displacement:        1/  1
  Total:              70/153
 bond charge predicted
       N       E                     dE             d eps       ncg     rms          rms(c)
DAV:   1    -0.177601229140E+03    0.39224E-02   -0.25558E+00  3260   0.284E+00    0.992E-02
RMM:   2    -0.177604050290E+03   -0.28211E-02   -0.29722E-02  3256   0.729E-01    0.112E-01
RMM:   3    -0.177605504111E+03   -0.14538E-02   -0.16745E-02  4525   0.332E-01    0.792E-02
RMM:   4    -0.177605477307E+03    0.26804E-04   -0.51892E-04  3280   0.514E-02    0.699E-02
RMM:   5    -0.177605414015E+03    0.63292E-04   -0.10815E-04  3019   0.443E-02    0.541E-02
RMM:   6    -0.177605360167E+03    0.53848E-04   -0.27466E-04  3796   0.498E-02    0.298E-02
RMM:   7    -0.177605352587E+03    0.75796E-05   -0.53562E-05  2804   0.302E-02
  72 F= -.17760535E+03 E0= -.17758237E+03  d E =-.689440E-01
 Finite differences progress:
  Degree of freedom:  71/153
  Displacement:        1/  1
  Total:              71/153
 bond charge predicted
       N       E                     dE             d eps       ncg     rms          rms(c)
DAV:   1    -0.177598238755E+03    0.71214E-02   -0.25677E+00  3272   0.284E+00    0.122E-01
RMM:   2    -0.177601040610E+03   -0.28019E-02   -0.30213E-02  3252   0.738E-01    0.152E-01
RMM:   3    -0.177602182977E+03   -0.11424E-02   -0.15587E-02  4371   0.338E-01    0.819E-02
RMM:   4    -0.177602184102E+03   -0.11248E-05   -0.81857E-04  3440   0.627E-02    0.725E-02
RMM:   5    -0.177602124646E+03    0.59456E-04   -0.14174E-04  3217   0.508E-02    0.604E-02
RMM:   6    -0.177602059155E+03    0.65491E-04   -0.24345E-04  3507   0.536E-02    0.275E-02
RMM:   7    -0.177602055672E+03    0.34830E-05   -0.65518E-05  2930   0.317E-02
  73 F= -.17760206E+03 E0= -.17757907E+03  d E =-.689620E-01
 Finite differences progress:
  Degree of freedom:  72/153
  Displacement:        1/  1
  Total:              72/153
 bond charge predicted
       N       E                     dE             d eps       ncg     rms          rms(c)
DAV:   1    -0.177601719721E+03    0.33943E-03   -0.25586E+00  3348   0.292E+00    0.106E-01
RMM:   2    -0.177604508626E+03   -0.27889E-02   -0.29682E-02  3262   0.755E-01    0.123E-01
RMM:   3    -0.177605896671E+03   -0.13880E-02   -0.16431E-02  4551   0.342E-01    0.853E-02
RMM:   4    -0.177605853425E+03    0.43246E-04   -0.51527E-04  3589   0.530E-02    0.743E-02
RMM:   5    -0.177605789581E+03    0.63845E-04   -0.11050E-04  3065   0.441E-02    0.590E-02
RMM:   6    -0.177605720020E+03    0.69561E-04   -0.29169E-04  3869   0.511E-02    0.283E-02
RMM:   7    -0.177605713547E+03    0.64723E-05   -0.65388E-05  3017   0.328E-02
  74 F= -.17760571E+03 E0= -.17758276E+03  d E =-.688503E-01
 Finite differences progress:
  Degree of freedom:  73/153
  Displacement:        1/  1
  Total:              73/153
 bond charge predicted
       N       E                     dE             d eps       ncg     rms          rms(c)
DAV:   1    -0.177600927012E+03    0.47930E-02   -0.25562E+00  3264   0.290E+00    0.993E-02
RMM:   2    -0.177603753174E+03   -0.28262E-02   -0.29776E-02  3263   0.743E-01    0.113E-01
RMM:   3    -0.177605204777E+03   -0.14516E-02   -0.16737E-02  4531   0.338E-01    0.799E-02
RMM:   4    -0.177605176403E+03    0.28375E-04   -0.52753E-04  3332   0.524E-02    0.704E-02
RMM:   5    -0.177605116502E+03    0.59900E-04   -0.11342E-04  3117   0.461E-02    0.564E-02
RMM:   6    -0.177605054691E+03    0.61812E-04   -0.27052E-04  3779   0.503E-02    0.287E-02
RMM:   7    -0.177605049157E+03    0.55333E-05   -0.60262E-05  2949   0.319E-02
  75 F= -.17760505E+03 E0= -.17758207E+03  d E =-.689511E-01
 Finite differences progress:
  Degree of freedom:  74/153
  Displacement:        1/  1
  Total:              74/153
 bond charge predicted
       N       E                     dE             d eps       ncg     rms          rms(c)
DAV:   1    -0.177599171070E+03    0.58836E-02   -0.25673E+00  3272   0.291E+00    0.124E-01
RMM:   2    -0.177601973822E+03   -0.28028E-02   -0.30195E-02  3248   0.761E-01    0.156E-01
RMM:   3    -0.177603073689E+03   -0.10999E-02   -0.15389E-02  4430   0.348E-01    0.822E-02
RMM:   4    -0.177603071398E+03    0.22912E-05   -0.81285E-04  3445   0.619E-02    0.728E-02
RMM:   5    -0.177603018574E+03    0.52824E-04   -0.14546E-04  3228   0.521E-02    0.638E-02
RMM:   6    -0.177602940757E+03    0.77817E-04   -0.23705E-04  3489   0.535E-02    0.254E-02
RMM:   7    -0.177602938910E+03    0.18472E-05   -0.70074E-05  3015   0.320E-02
  76 F= -.17760294E+03 E0= -.17757994E+03  d E =-.689964E-01
 Finite differences progress:
  Degree of freedom:  75/153
  Displacement:        1/  1
  Total:              75/153
 bond charge predicted
       N       E                     dE             d eps       ncg     rms          rms(c)
DAV:   1    -0.177601117452E+03    0.18233E-02   -0.25580E+00  3332   0.293E+00    0.106E-01
RMM:   2    -0.177603908845E+03   -0.27914E-02   -0.29703E-02  3249   0.757E-01    0.120E-01
RMM:   3    -0.177605302211E+03   -0.13934E-02   -0.16459E-02  4544   0.345E-01    0.855E-02
RMM:   4    -0.177605259422E+03    0.42789E-04   -0.51992E-04  3458   0.537E-02    0.742E-02
RMM:   5    -0.177605199628E+03    0.59793E-04   -0.11574E-04  3065   0.456E-02    0.609E-02
RMM:   6    -0.177605132891E+03    0.66737E-04   -0.26761E-04  3736   0.521E-02    0.369E-02
RMM:   7    -0.177605121085E+03    0.11806E-04   -0.87984E-05  3169   0.382E-02    0.172E-02
RMM:   8    -0.177605119195E+03    0.18896E-05   -0.24679E-05  1958   0.161E-02
  77 F= -.17760512E+03 E0= -.17758212E+03  d E =-.689904E-01
 Finite differences progress:
  Degree of freedom:  76/153
  Displacement:        1/  1
  Total:              76/153
 bond charge predicted
       N       E                     dE             d eps       ncg     rms          rms(c)
DAV:   1    -0.177601543020E+03    0.35781E-02   -0.25559E+00  3256   0.287E+00    0.985E-02
RMM:   2    -0.177604352974E+03   -0.28100E-02   -0.29580E-02  3259   0.738E-01    0.111E-01
RMM:   3    -0.177605782910E+03   -0.14299E-02   -0.16433E-02  4541   0.331E-01    0.792E-02
RMM:   4    -0.177605753324E+03    0.29586E-04   -0.50087E-04  3294   0.507E-02    0.696E-02
RMM:   5    -0.177605687420E+03    0.65904E-04   -0.11827E-04  3121   0.470E-02    0.539E-02
RMM:   6    -0.177605635309E+03    0.52112E-04   -0.26947E-04  3755   0.503E-02    0.288E-02
RMM:   7    -0.177605628936E+03    0.63727E-05   -0.54890E-05  2811   0.304E-02
  78 F= -.17760563E+03 E0= -.17758259E+03  d E =-.691268E-01
 Finite differences progress:
  Degree of freedom:  77/153
  Displacement:        1/  1
  Total:              77/153
 bond charge predicted
       N       E                     dE             d eps       ncg     rms          rms(c)
DAV:   1    -0.177599274747E+03    0.63606E-02   -0.25657E+00  3272   0.286E+00    0.126E-01
RMM:   2    -0.177602115666E+03   -0.28409E-02   -0.30457E-02  3260   0.748E-01    0.165E-01
RMM:   3    -0.177603168965E+03   -0.10533E-02   -0.15440E-02  4331   0.344E-01    0.814E-02
RMM:   4    -0.177603184564E+03   -0.15599E-04   -0.97164E-04  3547   0.679E-02    0.731E-02
RMM:   5    -0.177603129124E+03    0.55440E-04   -0.14933E-04  3222   0.515E-02    0.639E-02
RMM:   6    -0.177603054064E+03    0.75060E-04   -0.25648E-04  3507   0.553E-02    0.266E-02
RMM:   7    -0.177603051853E+03    0.22111E-05   -0.66650E-05  2871   0.298E-02
  79 F= -.17760305E+03 E0= -.17758001E+03  d E =-.691213E-01
 Finite differences progress:
  Degree of freedom:  78/153
  Displacement:        1/  1
  Total:              78/153
 bond charge predicted
       N       E                     dE             d eps       ncg     rms          rms(c)
DAV:   1    -0.177601960587E+03    0.10935E-02   -0.25577E+00  3348   0.292E+00    0.105E-01
RMM:   2    -0.177604727659E+03   -0.27671E-02   -0.29484E-02  3258   0.752E-01    0.114E-01
RMM:   3    -0.177606132331E+03   -0.14047E-02   -0.16353E-02  4544   0.341E-01    0.861E-02
RMM:   4    -0.177606088497E+03    0.43835E-04   -0.52448E-04  3687   0.539E-02    0.742E-02
RMM:   5    -0.177606039488E+03    0.49009E-04   -0.10330E-04  3019   0.422E-02    0.643E-02
RMM:   6    -0.177605967744E+03    0.71744E-04   -0.26634E-04  3798   0.517E-02    0.414E-02
RMM:   7    -0.177605950670E+03    0.17074E-04   -0.97108E-05  3183   0.406E-02    0.171E-02
RMM:   8    -0.177605948988E+03    0.16813E-05   -0.25608E-05  1990   0.165E-02
  80 F= -.17760595E+03 E0= -.17758296E+03  d E =-.689543E-01
 Finite differences progress:
  Degree of freedom:  79/153
  Displacement:        1/  1
  Total:              79/153
 bond charge predicted
       N       E                     dE             d eps       ncg     rms          rms(c)
DAV:   1    -0.177600918851E+03    0.50318E-02   -0.25568E+00  3284   0.289E+00    0.989E-02
RMM:   2    -0.177603746278E+03   -0.28274E-02   -0.29746E-02  3253   0.741E-01    0.115E-01
RMM:   3    -0.177605188741E+03   -0.14425E-02   -0.16705E-02  4526   0.337E-01    0.797E-02
RMM:   4    -0.177605163435E+03    0.25306E-04   -0.54071E-04  3327   0.528E-02    0.705E-02
RMM:   5    -0.177605101628E+03    0.61807E-04   -0.12089E-04  3151   0.476E-02    0.571E-02
RMM:   6    -0.177605041342E+03    0.60286E-04   -0.27508E-04  3744   0.520E-02    0.290E-02
[...]
 Finite differences progress:
  Degree of freedom: 132/153
  Displacement:        1/  1
  Total:             132/153
 bond charge predicted
       N       E                     dE             d eps       ncg     rms          rms(c)
DAV:   1    -0.177600716550E+03    0.63059E-02   -0.25524E+00  3336   0.292E+00    0.106E-01
RMM:   2    -0.177603626790E+03   -0.29102E-02   -0.30993E-02  3272   0.765E-01    0.118E-01
RMM:   3    -0.177605210773E+03   -0.15840E-02   -0.18123E-02  4548   0.350E-01    0.876E-02
RMM:   4    -0.177605174056E+03    0.36717E-04   -0.57719E-04  3673   0.545E-02    0.778E-02
RMM:   5    -0.177605113029E+03    0.61027E-04   -0.92252E-05  3015   0.387E-02    0.638E-02
RMM:   6    -0.177605046869E+03    0.66161E-04   -0.34444E-04  4044   0.563E-02    0.382E-02
RMM:   7    -0.177605037035E+03    0.98334E-05   -0.76426E-05  3141   0.364E-02
 134 F= -.17760504E+03 E0= -.17758205E+03  d E =-.689706E-01
 Finite differences progress:
  Degree of freedom: 133/153
  Displacement:        1/  1
  Total:             133/153
 bond charge predicted
       N       E                     dE             d eps       ncg     rms          rms(c)
DAV:   1    -0.177601656284E+03    0.33906E-02   -0.25603E+00  3284   0.286E+00    0.102E-01
RMM:   2    -0.177604460435E+03   -0.28042E-02   -0.29778E-02  3258   0.735E-01    0.995E-02
RMM:   3    -0.177605989830E+03   -0.15294E-02   -0.17010E-02  4542   0.331E-01    0.868E-02
RMM:   4    -0.177605949946E+03    0.39884E-04   -0.54198E-04  3549   0.522E-02    0.750E-02
RMM:   5    -0.177605876339E+03    0.73607E-04   -0.10239E-04  3178   0.408E-02    0.584E-02
RMM:   6    -0.177605825901E+03    0.50438E-04   -0.32646E-04  3915   0.557E-02    0.357E-02
RMM:   7    -0.177605814812E+03    0.11089E-04   -0.57519E-05  2929   0.316E-02    0.206E-02
RMM:   8    -0.177605810125E+03    0.46870E-05   -0.15798E-05  1856   0.147E-02
 135 F= -.17760581E+03 E0= -.17758278E+03  d E =-.690806E-01
 Finite differences progress:
  Degree of freedom: 134/153
  Displacement:        1/  1
  Total:             134/153
 bond charge predicted
       N       E                     dE             d eps       ncg     rms          rms(c)
DAV:   1    -0.177602198361E+03    0.36165E-02   -0.25611E+00  3288   0.285E+00    0.100E-01
RMM:   2    -0.177604988098E+03   -0.27897E-02   -0.29623E-02  3257   0.731E-01    0.966E-02
RMM:   3    -0.177606528825E+03   -0.15407E-02   -0.16987E-02  4483   0.330E-01    0.862E-02
RMM:   4    -0.177606498917E+03    0.29908E-04   -0.58205E-04  3572   0.549E-02    0.739E-02
RMM:   5    -0.177606424988E+03    0.73929E-04   -0.11435E-04  3208   0.431E-02    0.555E-02
RMM:   6    -0.177606383814E+03    0.41174E-04   -0.32729E-04  3832   0.564E-02    0.307E-02
RMM:   7    -0.177606375580E+03    0.82339E-05   -0.45102E-05  2528   0.268E-02
 136 F= -.17760638E+03 E0= -.17758338E+03  d E =-.689921E-01
 Finite differences progress:
  Degree of freedom: 135/153
  Displacement:        1/  1
  Total:             135/153
 bond charge predicted
       N       E                     dE             d eps       ncg     rms          rms(c)
DAV:   1    -0.177602354172E+03    0.40296E-02   -0.25536E+00  3324   0.292E+00    0.109E-01
RMM:   2    -0.177605246867E+03   -0.28927E-02   -0.30933E-02  3269   0.763E-01    0.116E-01
RMM:   3    -0.177606833918E+03   -0.15871E-02   -0.18179E-02  4542   0.353E-01    0.889E-02
RMM:   4    -0.177606795906E+03    0.38011E-04   -0.59034E-04  3695   0.555E-02    0.782E-02
RMM:   5    -0.177606736398E+03    0.59509E-04   -0.97532E-05  3084   0.397E-02    0.651E-02
RMM:   6    -0.177606668571E+03    0.67827E-04   -0.33313E-04  3971   0.559E-02    0.379E-02
RMM:   7    -0.177606658364E+03    0.10206E-04   -0.77034E-05  3141   0.361E-02    0.219E-02
RMM:   8    -0.177606653627E+03    0.47378E-05   -0.21441E-05  1924   0.174E-02
 137 F= -.17760665E+03 E0= -.17758367E+03  d E =-.689563E-01
 Finite differences progress:
  Degree of freedom: 136/153
  Displacement:        1/  1
  Total:             136/153
 bond charge predicted
       N       E                     dE             d eps       ncg     rms          rms(c)
DAV:   1    -0.177600911301E+03    0.57471E-02   -0.25601E+00  3264   0.288E+00    0.103E-01
RMM:   2    -0.177603719239E+03   -0.28079E-02   -0.29774E-02  3261   0.743E-01    0.102E-01
RMM:   3    -0.177605234814E+03   -0.15156E-02   -0.16917E-02  4524   0.333E-01    0.873E-02
RMM:   4    -0.177605191947E+03    0.42866E-04   -0.54271E-04  3599   0.527E-02    0.745E-02
RMM:   5    -0.177605107500E+03    0.84447E-04   -0.12659E-04  3240   0.457E-02    0.556E-02
RMM:   6    -0.177605064048E+03    0.43453E-04   -0.32885E-04  3809   0.584E-02    0.298E-02
RMM:   7    -0.177605055746E+03    0.83015E-05   -0.44690E-05  2544   0.265E-02
 138 F= -.17760506E+03 E0= -.17758213E+03  d E =-.687673E-01
 Finite differences progress:
  Degree of freedom: 137/153
  Displacement:        1/  1
  Total:             137/153
 bond charge predicted
       N       E                     dE             d eps       ncg     rms          rms(c)
DAV:   1    -0.177601984519E+03    0.30795E-02   -0.25602E+00  3256   0.290E+00    0.101E-01
RMM:   2    -0.177604757893E+03   -0.27734E-02   -0.29555E-02  3253   0.747E-01    0.978E-02
RMM:   3    -0.177606280405E+03   -0.15225E-02   -0.16840E-02  4541   0.335E-01    0.873E-02
RMM:   4    -0.177606243211E+03    0.37195E-04   -0.54381E-04  3570   0.529E-02    0.751E-02
RMM:   5    -0.177606167770E+03    0.75441E-04   -0.11121E-04  3217   0.428E-02    0.572E-02
RMM:   6    -0.177606122280E+03    0.45490E-04   -0.32659E-04  3887   0.568E-02    0.328E-02
RMM:   7    -0.177606113388E+03    0.88921E-05   -0.55934E-05  2828   0.308E-02
 139 F= -.17760611E+03 E0= -.17758309E+03  d E =-.690627E-01
 Finite differences progress:
  Degree of freedom: 138/153
  Displacement:        1/  1
  Total:             138/153
 bond charge predicted
       N       E                     dE             d eps       ncg     rms          rms(c)
DAV:   1    -0.177601465452E+03    0.46568E-02   -0.25514E+00  3308   0.293E+00    0.108E-01
RMM:   2    -0.177604364567E+03   -0.28991E-02   -0.30982E-02  3270   0.764E-01    0.114E-01
RMM:   3    -0.177605979838E+03   -0.16153E-02   -0.18343E-02  4544   0.355E-01    0.894E-02
RMM:   4    -0.177605940626E+03    0.39212E-04   -0.59200E-04  3739   0.556E-02    0.784E-02
RMM:   5    -0.177605883005E+03    0.57621E-04   -0.89757E-05  2901   0.375E-02    0.658E-02
RMM:   6    -0.177605810319E+03    0.72686E-04   -0.32633E-04  4021   0.552E-02    0.387E-02
RMM:   7    -0.177605800081E+03    0.10238E-04   -0.84098E-05  3167   0.381E-02    0.220E-02
RMM:   8    -0.177605795490E+03    0.45907E-05   -0.22222E-05  1946   0.177E-02
 140 F= -.17760580E+03 E0= -.17758283E+03  d E =-.689054E-01
 Finite differences progress:
  Degree of freedom: 139/153
  Displacement:        1/  1
  Total:             139/153
 bond charge predicted
       N       E                     dE             d eps       ncg     rms          rms(c)
DAV:   1    -0.177601367496E+03    0.44326E-02   -0.25595E+00  3260   0.288E+00    0.102E-01
RMM:   2    -0.177604176985E+03   -0.28095E-02   -0.29778E-02  3261   0.740E-01    0.102E-01
RMM:   3    -0.177605711112E+03   -0.15341E-02   -0.17033E-02  4531   0.333E-01    0.877E-02
RMM:   4    -0.177605667466E+03    0.43646E-04   -0.54436E-04  3650   0.528E-02    0.748E-02
RMM:   5    -0.177605587949E+03    0.79517E-04   -0.11863E-04  3248   0.441E-02    0.574E-02
RMM:   6    -0.177605539403E+03    0.48546E-04   -0.34807E-04  3895   0.587E-02    0.307E-02
RMM:   7    -0.177605529672E+03    0.97307E-05   -0.45620E-05  2572   0.274E-02
 141 F= -.17760553E+03 E0= -.17758251E+03  d E =-.690492E-01
 Finite differences progress:
  Degree of freedom: 140/153
  Displacement:        1/  1
  Total:             140/153
 bond charge predicted
       N       E                     dE             d eps       ncg     rms          rms(c)
DAV:   1    -0.177602338567E+03    0.32008E-02   -0.25574E+00  3252   0.288E+00    0.101E-01
RMM:   2    -0.177605128042E+03   -0.27895E-02   -0.29669E-02  3256   0.742E-01    0.992E-02
RMM:   3    -0.177606668191E+03   -0.15401E-02   -0.17024E-02  4525   0.334E-01    0.870E-02
RMM:   4    -0.177606633421E+03    0.34770E-04   -0.55433E-04  3591   0.529E-02    0.751E-02
RMM:   5    -0.177606557284E+03    0.76137E-04   -0.11238E-04  3225   0.431E-02    0.568E-02
RMM:   6    -0.177606513349E+03    0.43934E-04   -0.34204E-04  3876   0.580E-02    0.319E-02
RMM:   7    -0.177606504013E+03    0.93364E-05   -0.49529E-05  2661   0.286E-02
 142 F= -.17760650E+03 E0= -.17758348E+03  d E =-.690731E-01
 Finite differences progress:
  Degree of freedom: 141/153
  Displacement:        1/  1
  Total:             141/153
 bond charge predicted
       N       E                     dE             d eps       ncg     rms          rms(c)
DAV:   1    -0.177600237771E+03    0.62756E-02   -0.25510E+00  3340   0.293E+00    0.106E-01
RMM:   2    -0.177603133009E+03   -0.28952E-02   -0.30853E-02  3262   0.762E-01    0.112E-01
RMM:   3    -0.177604761227E+03   -0.16282E-02   -0.18369E-02  4549   0.354E-01    0.882E-02
RMM:   4    -0.177604725379E+03    0.35848E-04   -0.60068E-04  3710   0.561E-02    0.776E-02
RMM:   5    -0.177604664787E+03    0.60592E-04   -0.90217E-05  2961   0.378E-02    0.639E-02
RMM:   6    -0.177604598256E+03    0.66531E-04   -0.34575E-04  4077   0.556E-02    0.380E-02
RMM:   7    -0.177604588242E+03    0.10014E-04   -0.74033E-05  3117   0.356E-02    0.229E-02
RMM:   8    -0.177604582882E+03    0.53606E-05   -0.19289E-05  1893   0.168E-02
 143 F= -.17760458E+03 E0= -.17758160E+03  d E =-.689357E-01
 Finite differences progress:
  Degree of freedom: 142/153
  Displacement:        1/  1
  Total:             142/153
 bond charge predicted
       N       E                     dE             d eps       ncg     rms          rms(c)
DAV:   1    -0.177601384222E+03    0.32040E-02   -0.25606E+00  3272   0.288E+00    0.101E-01
RMM:   2    -0.177604200671E+03   -0.28164E-02   -0.29836E-02  3259   0.742E-01    0.102E-01
RMM:   3    -0.177605723613E+03   -0.15229E-02   -0.16981E-02  4526   0.333E-01    0.860E-02
RMM:   4    -0.177605685296E+03    0.38317E-04   -0.54809E-04  3577   0.532E-02    0.741E-02
RMM:   5    -0.177605611469E+03    0.73827E-04   -0.11374E-04  3226   0.434E-02    0.580E-02
RMM:   6    -0.177605560203E+03    0.51266E-04   -0.33020E-04  3875   0.565E-02    0.312E-02
RMM:   7    -0.177605551325E+03    0.88785E-05   -0.46566E-05  2579   0.270E-02
 144 F= -.17760555E+03 E0= -.17758255E+03  d E =-.689964E-01
 Finite differences progress:
  Degree of freedom: 143/153
  Displacement:        1/  1
  Total:             143/153
 bond charge predicted
       N       E                     dE             d eps       ncg     rms          rms(c)
DAV:   1    -0.177602847683E+03    0.27125E-02   -0.25602E+00  3256   0.289E+00    0.101E-01
RMM:   2    -0.177605645301E+03   -0.27976E-02   -0.29699E-02  3247   0.744E-01    0.102E-01
RMM:   3    -0.177607179934E+03   -0.15346E-02   -0.17107E-02  4533   0.337E-01    0.865E-02
RMM:   4    -0.177607148057E+03    0.31877E-04   -0.54404E-04  3536   0.527E-02    0.755E-02
RMM:   5    -0.177607078326E+03    0.69731E-04   -0.11300E-04  3214   0.437E-02    0.598E-02
RMM:   6    -0.177607024484E+03    0.53842E-04   -0.33860E-04  3900   0.572E-02    0.310E-02
RMM:   7    -0.177607016951E+03    0.75331E-05   -0.48796E-05  2634   0.283E-02
 145 F= -.17760702E+03 E0= -.17758402E+03  d E =-.690047E-01
 Finite differences progress:
  Degree of freedom: 144/153
  Displacement:        1/  1
  Total:             144/153
 bond charge predicted
       N       E                     dE             d eps       ncg     rms          rms(c)
DAV:   1    -0.177599601835E+03    0.74226E-02   -0.21644E+00  3240   0.267E+00    0.155E-01
RMM:   2    -0.177603577177E+03   -0.39753E-02   -0.43125E-02  3318   0.703E-01    0.102E-01
RMM:   3    -0.177604927594E+03   -0.13504E-02   -0.16569E-02  4272   0.334E-01    0.116E-01
RMM:   4    -0.177604826040E+03    0.10155E-03   -0.13583E-03  3573   0.109E-01    0.699E-02
RMM:   5    -0.177604800253E+03    0.25787E-04   -0.33184E-04  3456   0.564E-02    0.584E-02
RMM:   6    -0.177604767599E+03    0.32654E-04   -0.22597E-04  3301   0.572E-02    0.266E-02
RMM:   7    -0.177604769580E+03   -0.19802E-05   -0.10592E-04  3277   0.340E-02    0.206E-02
RMM:   8    -0.177604766221E+03    0.33581E-05   -0.26293E-05  2026   0.181E-02
 146 F= -.17760477E+03 E0= -.17758177E+03  d E =-.689948E-01
 Finite differences progress:
  Degree of freedom: 145/153
  Displacement:        1/  1
  Total:             145/153
 bond charge predicted
       N       E                     dE             d eps       ncg     rms          rms(c)
DAV:   1    -0.177601887667E+03    0.28819E-02   -0.17799E+00  3240   0.193E+00    0.158E-01
RMM:   2    -0.177604973615E+03   -0.30859E-02   -0.35526E-02  3408   0.455E-01    0.996E-02
RMM:   3    -0.177605952030E+03   -0.97842E-03   -0.11834E-02  3566   0.255E-01    0.130E-01
RMM:   4    -0.177605799709E+03    0.15232E-03   -0.15299E-03  3339   0.129E-01    0.497E-02
RMM:   5    -0.177605860083E+03   -0.60375E-04   -0.66693E-04  3825   0.681E-02    0.492E-02
RMM:   6    -0.177605836870E+03    0.23213E-04   -0.12680E-04  3214   0.462E-02    0.207E-02
RMM:   7    -0.177605839249E+03   -0.23786E-05   -0.59188E-05  2528   0.226E-02
 147 F= -.17760584E+03 E0= -.17758284E+03  d E =-.689983E-01
 Finite differences progress:
  Degree of freedom: 146/153
  Displacement:        1/  1
  Total:             146/153
 bond charge predicted
       N       E                     dE             d eps       ncg     rms          rms(c)
DAV:   1    -0.177577184966E+03    0.28652E-01   -0.17711E+00  3240   0.187E+00    0.240E-01
RMM:   2    -0.177581711166E+03   -0.45262E-02   -0.44118E-02  3370   0.487E-01    0.307E-01
RMM:   3    -0.177581360655E+03    0.35051E-03   -0.13088E-02  3384   0.330E-01    0.162E-01
RMM:   4    -0.177581168870E+03    0.19178E-03   -0.23293E-03  3398   0.154E-01    0.714E-02
RMM:   5    -0.177581162425E+03    0.64453E-05   -0.89456E-04  3864   0.767E-02    0.565E-02
RMM:   6    -0.177581153681E+03    0.87442E-05   -0.25971E-04  3291   0.559E-02    0.358E-02
RMM:   7    -0.177581142877E+03    0.10804E-04   -0.97842E-05  3193   0.395E-02    0.873E-03
RMM:   8    -0.177581149171E+03   -0.62934E-05   -0.33487E-05  2194   0.152E-02
 148 F= -.17758115E+03 E0= -.17755802E+03  d E =-.693845E-01
 Finite differences progress:
  Degree of freedom: 147/153
  Displacement:        1/  1
  Total:             147/153
 bond charge predicted
       N       E                     dE             d eps       ncg     rms          rms(c)
DAV:   1    -0.177602916109E+03   -0.21773E-01   -0.95897E-01  3248   0.129E+00    0.251E-01
RMM:   2    -0.177606434279E+03   -0.35182E-02   -0.32036E-02  3314   0.384E-01    0.311E-01
RMM:   3    -0.177605892046E+03    0.54223E-03   -0.11220E-02  3338   0.301E-01    0.163E-01
RMM:   4    -0.177605723001E+03    0.16904E-03   -0.18412E-03  3324   0.145E-01    0.760E-02
RMM:   5    -0.177605727263E+03   -0.42625E-05   -0.76832E-04  3674   0.714E-02    0.535E-02
RMM:   6    -0.177605737747E+03   -0.10483E-04   -0.27640E-04  3297   0.595E-02    0.390E-02
RMM:   7    -0.177605722236E+03    0.15510E-04   -0.10351E-04  3190   0.425E-02    0.865E-03
RMM:   8    -0.177605726252E+03   -0.40163E-05   -0.35131E-05  2198   0.158E-02
 149 F= -.17760573E+03 E0= -.17758273E+03  d E =-.690006E-01
 Finite differences progress:
  Degree of freedom: 148/153
  Displacement:        1/  1
  Total:             148/153
 bond charge predicted
       N       E                     dE             d eps       ncg     rms          rms(c)
DAV:   1    -0.177599979129E+03    0.57431E-02   -0.13901E-01  3284   0.356E-01    0.119E-01
RMM:   2    -0.177600315555E+03   -0.33643E-03   -0.31606E-03  3225   0.113E-01    0.899E-02
RMM:   3    -0.177600476007E+03   -0.16045E-03   -0.15505E-03  3339   0.922E-02    0.878E-02
RMM:   4    -0.177600460688E+03    0.15320E-04   -0.36197E-04  3267   0.762E-02    0.412E-02
RMM:   5    -0.177600458509E+03    0.21784E-05   -0.11997E-04  3097   0.417E-02    0.167E-02
RMM:   6    -0.177600462703E+03   -0.41940E-05   -0.48044E-05  2396   0.252E-02
 150 F= -.17760046E+03 E0= -.17757746E+03  d E =-.690158E-01
 Finite differences progress:
  Degree of freedom: 149/153
  Displacement:        1/  1
  Total:             149/153
 bond charge predicted
       N       E                     dE             d eps       ncg     rms          rms(c)
DAV:   1    -0.177604540431E+03   -0.40819E-02   -0.14092E-01  3344   0.367E-01    0.178E-01
RMM:   2    -0.177605043915E+03   -0.50348E-03   -0.41466E-03  3259   0.135E-01    0.197E-01
RMM:   3    -0.177604677437E+03    0.36648E-03   -0.24696E-03  3278   0.150E-01    0.110E-01
RMM:   4    -0.177604626057E+03    0.51380E-04   -0.56599E-04  3279   0.983E-02    0.599E-02
RMM:   5    -0.177604641263E+03   -0.15206E-04   -0.19147E-04  3297   0.421E-02    0.218E-02
RMM:   6    -0.177604644597E+03   -0.33338E-05   -0.74664E-05  3112   0.359E-02
 151 F= -.17760464E+03 E0= -.17758167E+03  d E =-.689319E-01
 Finite differences progress:
  Degree of freedom: 150/153
  Displacement:        1/  1
  Total:             150/153
 bond charge predicted
       N       E                     dE             d eps       ncg     rms          rms(c)
DAV:   1    -0.177606126389E+03   -0.14851E-02   -0.13561E-01  3288   0.489E-01    0.192E-01
RMM:   2    -0.177606697668E+03   -0.57128E-03   -0.50663E-03  3313   0.166E-01    0.238E-01
RMM:   3    -0.177605992760E+03    0.70491E-03   -0.23690E-03  3299   0.168E-01    0.115E-01
RMM:   4    -0.177605917281E+03    0.75479E-04   -0.68695E-04  3290   0.105E-01    0.637E-02
RMM:   5    -0.177605907450E+03    0.98306E-05   -0.27409E-04  3439   0.477E-02    0.246E-02
RMM:   6    -0.177605914763E+03   -0.73124E-05   -0.10144E-04  3201   0.403E-02    0.246E-02
RMM:   7    -0.177605907757E+03    0.70056E-05   -0.39798E-05  2398   0.279E-02
 152 F= -.17760591E+03 E0= -.17758291E+03  d E =-.689927E-01
 Finite differences progress:
  Degree of freedom: 151/153
  Displacement:        1/  1
  Total:             151/153
 bond charge predicted
       N       E                     dE             d eps       ncg     rms          rms(c)
DAV:   1    -0.177603247304E+03    0.26675E-02   -0.12186E-01  3248   0.449E-01    0.389E-02
RMM:   2    -0.177603331232E+03   -0.83928E-04   -0.10983E-03  3199   0.114E-01    0.297E-02
RMM:   3    -0.177603344506E+03   -0.13275E-04   -0.28162E-04  3156   0.544E-02    0.278E-02
RMM:   4    -0.177603341139E+03    0.33676E-05   -0.10588E-04  2998   0.371E-02    0.135E-02
RMM:   5    -0.177603342167E+03   -0.10282E-05   -0.37092E-05  2263   0.192E-02    0.490E-03
RMM:   6    -0.177603343258E+03   -0.10914E-05   -0.10697E-05  1892   0.128E-02
 153 F= -.17760334E+03 E0= -.17758031E+03  d E =-.691132E-01
 Finite differences progress:
  Degree of freedom: 152/153
  Displacement:        1/  1
  Total:             152/153
 bond charge predicted
       N       E                     dE             d eps       ncg     rms          rms(c)
DAV:   1    -0.177579176924E+03    0.24165E-01   -0.12186E-01  3248   0.445E-01    0.405E-02
RMM:   2    -0.177579245281E+03   -0.68357E-04   -0.10390E-03  3069   0.107E-01    0.286E-02
RMM:   3    -0.177579261480E+03   -0.16199E-04   -0.26685E-04  3106   0.522E-02    0.303E-02
RMM:   4    -0.177579254375E+03    0.71056E-05   -0.87798E-05  2725   0.348E-02    0.122E-02
RMM:   5    -0.177579255335E+03   -0.96000E-06   -0.33985E-05  2190   0.192E-02    0.911E-03
RMM:   6    -0.177579255183E+03    0.15176E-06   -0.11795E-05  1889   0.138E-02
 154 F= -.17757926E+03 E0= -.17755624E+03  d E =-.690408E-01
 Finite differences progress:
  Degree of freedom: 153/153
  Displacement:        1/  1
  Total:             153/153
 Finite differences POTIM=  1.500000000000000E-002
