  51  51   0   0
  0.3231811E+02  0.1011850E-08  0.1011850E-08  0.1858888E-08  0.1500000E-16
  1.000000000000000E-004
  CAR 
 Bulk Frequency (Finite Difference)      
      7.50394241    -16.62225216  301     -0.44143273      1.00000000
    -16.622  0.0000E+00  0.0000E+00
    -16.542  0.0000E+00  0.0000E+00
    -16.461  0.0000E+00  0.0000E+00
    -16.381 -0.9952E-30 -0.8003E-31
    -16.301 -0.4462E-24 -0.3589E-25
    -16.220 -0.5430E-19 -0.4367E-20
    -16.140 -0.1788E-14 -0.1438E-15
    -16.059 -0.1532E-10 -0.1233E-11
    -15.979 -0.3597E-07 -0.2894E-08
    -15.898 -0.2219E-04 -0.1788E-05
    -15.818 -0.3491E-02 -0.2825E-03
    -15.738 -0.1285E+00 -0.1062E-01
    -15.657 -0.7214E+00 -0.6863E-01
    -15.577  0.3918E+01  0.2465E+00
    -15.496  0.1523E+02  0.1472E+01
    -15.416  0.7378E+01  0.2065E+01
    -15.336 -0.5361E+00  0.2022E+01
    -15.255 -0.2597E+00  0.2001E+01
    -15.175 -0.1090E-01  0.2000E+01
    -15.094 -0.1019E-03  0.2000E+01
    -15.014 -0.2391E-06  0.2000E+01
    -14.933 -0.1467E-09  0.2000E+01
    -14.853 -0.2209E-13  0.2000E+01
    -14.773  0.0000E+00  0.2000E+01
    -14.692  0.0000E+00  0.2000E+01
    -14.612  0.0000E+00  0.2000E+01
    -14.531  0.0000E+00  0.2000E+01
    -14.451  0.0000E+00  0.2000E+01
    -14.370  0.0000E+00  0.2000E+01
    -14.290  0.0000E+00  0.2000E+01
    -14.210  0.0000E+00  0.2000E+01
    -14.129  0.0000E+00  0.2000E+01
    -14.049  0.0000E+00  0.2000E+01
    -13.968  0.0000E+00  0.2000E+01
    -13.888  0.0000E+00  0.2000E+01
    -13.808  0.0000E+00  0.2000E+01
    -13.727  0.0000E+00  0.2000E+01
    -13.647  0.0000E+00  0.2000E+01
    -13.566  0.0000E+00  0.2000E+01
    -13.486  0.0000E+00  0.2000E+01
    -13.405  0.0000E+00  0.2000E+01
    -13.325  0.0000E+00  0.2000E+01
    -13.245  0.0000E+00  0.2000E+01
    -13.164  0.0000E+00  0.2000E+01
    -13.084  0.0000E+00  0.2000E+01
    -13.003  0.0000E+00  0.2000E+01
    -12.923  0.0000E+00  0.2000E+01
    -12.842  0.0000E+00  0.2000E+01
    -12.762  0.0000E+00  0.2000E+01
    -12.682  0.0000E+00  0.2000E+01
    -12.601  0.0000E+00  0.2000E+01
    -12.521  0.0000E+00  0.2000E+01
    -12.440  0.0000E+00  0.2000E+01
    -12.360  0.0000E+00  0.2000E+01
    -12.280  0.0000E+00  0.2000E+01
    -12.199  0.0000E+00  0.2000E+01
    -12.119  0.0000E+00  0.2000E+01
    -12.038  0.0000E+00  0.2000E+01
    -11.958  0.0000E+00  0.2000E+01
    -11.877  0.0000E+00  0.2000E+01
    -11.797  0.0000E+00  0.2000E+01
    -11.717  0.0000E+00  0.2000E+01
    -11.636  0.0000E+00  0.2000E+01
    -11.556  0.0000E+00  0.2000E+01
    -11.475  0.0000E+00  0.2000E+01
    -11.395  0.0000E+00  0.2000E+01
    -11.314  0.0000E+00  0.2000E+01
    -11.234  0.0000E+00  0.2000E+01
    -11.154  0.0000E+00  0.2000E+01
    -11.073  0.0000E+00  0.2000E+01
    -10.993  0.0000E+00  0.2000E+01
    -10.912  0.0000E+00  0.2000E+01
    -10.832  0.0000E+00  0.2000E+01
    -10.752  0.0000E+00  0.2000E+01
    -10.671  0.0000E+00  0.2000E+01
    -10.591  0.0000E+00  0.2000E+01
    -10.510  0.0000E+00  0.2000E+01
    -10.430  0.0000E+00  0.2000E+01
    -10.349  0.0000E+00  0.2000E+01
    -10.269  0.0000E+00  0.2000E+01
    -10.189  0.0000E+00  0.2000E+01
    -10.108 -0.3939E-32  0.2000E+01
    -10.028 -0.2419E-26  0.2000E+01
     -9.947 -0.4032E-21  0.2000E+01
     -9.867 -0.1821E-16  0.2000E+01
     -9.786 -0.2146E-12  0.2000E+01
     -9.706 -0.6939E-09  0.2000E+01
     -9.626 -0.5921E-06  0.2000E+01
     -9.545 -0.1301E-03  0.2000E+01
     -9.465 -0.6901E-02  0.1999E+01
     -9.384 -0.6809E-01  0.1994E+01
     -9.304  0.1778E+00  0.2008E+01
     -9.224  0.1422E+01  0.2123E+01
     -9.143  0.7067E+00  0.2179E+01
     -9.063  0.2520E+01  0.2382E+01
     -8.982  0.1007E+02  0.3192E+01
     -8.902  0.5051E+01  0.3598E+01
     -8.821 -0.3655E+00  0.3569E+01
     -8.741 -0.4831E+00  0.3530E+01
     -8.661  0.3786E+00  0.3560E+01
     -8.580  0.7241E+01  0.4142E+01
     -8.500  0.8100E+01  0.4794E+01
     -8.419  0.3120E+01  0.5045E+01
     -8.339  0.9512E+01  0.5810E+01
     -8.259  0.5598E+01  0.6260E+01
     -8.178 -0.2522E+00  0.6240E+01
     -8.098 -0.2067E+00  0.6223E+01
     -8.017 -0.3512E-01  0.6220E+01
     -7.937 -0.4245E+00  0.6186E+01
     -7.856 -0.2138E+00  0.6169E+01
     -7.776  0.1100E+02  0.7054E+01
     -7.696  0.1897E+02  0.8579E+01
     -7.615  0.5145E+01  0.8993E+01
     -7.535  0.6139E+00  0.9042E+01
     -7.454  0.1730E+00  0.9056E+01
     -7.374  0.5309E+01  0.9483E+01
     -7.293  0.1898E+02  0.1101E+02
     -7.213  0.1471E+02  0.1219E+02
     -7.133  0.1067E+01  0.1228E+02
     -7.052 -0.7299E+00  0.1222E+02
     -6.972 -0.7369E+00  0.1216E+02
     -6.891  0.2063E+01  0.1233E+02
     -6.811  0.1487E+02  0.1352E+02
     -6.731  0.1638E+02  0.1484E+02
     -6.650  0.1812E+02  0.1630E+02
     -6.570  0.2448E+02  0.1827E+02
     -6.489  0.5910E+01  0.1874E+02
     -6.409 -0.7782E+00  0.1868E+02
     -6.328  0.7721E+01  0.1930E+02
     -6.248  0.1525E+02  0.2053E+02
     -6.168  0.1347E+02  0.2161E+02
     -6.087  0.2319E+01  0.2180E+02
     -6.007  0.8652E+00  0.2186E+02
     -5.926  0.8486E+01  0.2255E+02
     -5.846  0.9353E+01  0.2330E+02
     -5.765  0.2402E+02  0.2523E+02
     -5.685  0.4139E+02  0.2856E+02
     -5.605  0.2954E+02  0.3093E+02
     -5.524  0.1753E+02  0.3234E+02
     -5.444  0.1425E+02  0.3349E+02
     -5.363  0.7854E+01  0.3412E+02
     -5.283  0.4178E+02  0.3748E+02
     -5.203  0.5720E+02  0.4208E+02
     -5.122  0.4553E+02  0.4574E+02
     -5.042  0.6983E+02  0.5136E+02
     -4.961  0.6508E+02  0.5659E+02
     -4.881  0.5085E+02  0.6068E+02
     -4.800  0.4921E+02  0.6464E+02
     -4.720  0.5880E+02  0.6937E+02
     -4.640  0.9782E+02  0.7723E+02
     -4.559  0.1066E+03  0.8581E+02
     -4.479  0.9171E+02  0.9318E+02
     -4.398  0.8602E+02  0.1001E+03
     -4.318  0.9359E+02  0.1076E+03
     -4.237  0.7553E+02  0.1137E+03
     -4.157  0.8335E+02  0.1204E+03
     -4.077  0.7580E+02  0.1265E+03
     -3.996  0.7579E+02  0.1326E+03
     -3.916  0.1488E+03  0.1446E+03
     -3.835  0.1496E+03  0.1566E+03
     -3.755  0.9059E+02  0.1639E+03
     -3.675  0.8948E+02  0.1711E+03
     -3.594  0.1407E+03  0.1824E+03
     -3.514  0.1769E+03  0.1966E+03
     -3.433  0.1419E+03  0.2080E+03
     -3.353  0.1702E+03  0.2217E+03
     -3.272  0.2165E+03  0.2391E+03
     -3.192  0.2330E+03  0.2579E+03
     -3.112  0.2359E+03  0.2768E+03
     -3.031  0.2044E+03  0.2933E+03
     -2.951  0.1384E+03  0.3044E+03
     -2.870  0.1133E+03  0.3135E+03
     -2.790  0.1252E+03  0.3236E+03
     -2.709  0.1610E+03  0.3365E+03
     -2.629  0.2187E+03  0.3541E+03
     -2.549  0.2439E+03  0.3737E+03
     -2.468  0.1918E+03  0.3892E+03
     -2.388  0.1548E+03  0.4016E+03
     -2.307  0.1617E+03  0.4146E+03
     -2.227  0.1914E+03  0.4300E+03
     -2.147  0.2493E+03  0.4501E+03
     -2.066  0.3096E+03  0.4750E+03
     -1.986  0.2447E+03  0.4946E+03
     -1.905  0.9736E+02  0.5025E+03
     -1.825  0.5138E+02  0.5066E+03
     -1.744  0.3736E+02  0.5096E+03
     -1.664  0.2987E+02  0.5120E+03
     -1.584  0.3231E+02  0.5146E+03
     -1.503  0.3873E+02  0.5177E+03
     -1.423  0.2813E+02  0.5200E+03
     -1.342  0.1670E+02  0.5213E+03
     -1.262  0.7802E+01  0.5220E+03
     -1.181  0.9377E+00  0.5220E+03
     -1.101  0.1180E+02  0.5230E+03
     -1.021  0.1650E+02  0.5243E+03
     -0.940  0.8597E+01  0.5250E+03
     -0.860  0.1540E+02  0.5262E+03
     -0.779  0.2228E+02  0.5280E+03
     -0.699  0.1289E+02  0.5291E+03
     -0.619  0.1372E+02  0.5302E+03
     -0.538  0.1605E+02  0.5315E+03
     -0.458  0.3322E+02  0.5341E+03
     -0.377  0.5320E+02  0.5384E+03
     -0.297  0.2310E+02  0.5403E+03
     -0.216  0.1372E+02  0.5414E+03
     -0.136  0.1904E+02  0.5429E+03
     -0.056  0.1610E+02  0.5442E+03
      0.025  0.1025E+02  0.5450E+03
      0.105  0.3299E+01  0.5453E+03
      0.186  0.5904E+01  0.5458E+03
      0.266  0.2719E+01  0.5460E+03
      0.347  0.3633E+01  0.5463E+03
      0.427  0.1027E+02  0.5471E+03
      0.507  0.9925E+01  0.5479E+03
      0.588  0.1816E+02  0.5494E+03
      0.668  0.2466E+02  0.5513E+03
      0.749  0.3104E+02  0.5538E+03
      0.829  0.2416E+02  0.5558E+03
      0.909  0.1913E+02  0.5573E+03
      0.990  0.2935E+02  0.5597E+03
      1.070  0.1630E+02  0.5610E+03
      1.151  0.9304E+01  0.5617E+03
      1.231  0.1338E+02  0.5628E+03
      1.312  0.1855E+02  0.5643E+03
      1.392  0.1540E+02  0.5655E+03
      1.472  0.5392E+01  0.5660E+03
      1.553  0.7277E+01  0.5666E+03
      1.633  0.8813E+01  0.5673E+03
      1.714  0.1887E+02  0.5688E+03
      1.794  0.3179E+02  0.5713E+03
      1.874  0.1640E+02  0.5727E+03
      1.955  0.1821E+02  0.5741E+03
      2.035  0.2598E+02  0.5762E+03
      2.116  0.1592E+02  0.5775E+03
      2.196  0.1364E+02  0.5786E+03
      2.277  0.8109E+01  0.5792E+03
      2.357  0.5358E+01  0.5797E+03
      2.437  0.9095E+01  0.5804E+03
      2.518  0.7523E+01  0.5810E+03
      2.598  0.9645E+01  0.5818E+03
      2.679  0.2055E+02  0.5834E+03
      2.759  0.1138E+02  0.5844E+03
      2.840  0.9021E+01  0.5851E+03
      2.920  0.9824E+01  0.5859E+03
      3.000  0.4049E+01  0.5862E+03
      3.081  0.8623E+01  0.5869E+03
      3.161  0.1073E+02  0.5878E+03
      3.242  0.1373E+02  0.5889E+03
      3.322  0.1341E+02  0.5899E+03
      3.402  0.1176E+02  0.5909E+03
      3.483  0.9061E+01  0.5916E+03
      3.563  0.1060E+02  0.5925E+03
      3.644  0.1521E+02  0.5937E+03
      3.724  0.2087E+02  0.5954E+03
      3.805  0.1400E+02  0.5965E+03
      3.885  0.1264E+02  0.5975E+03
      3.965  0.1518E+02  0.5987E+03
      4.046  0.1147E+02  0.5996E+03
      4.126  0.1629E+01  0.5998E+03
      4.207  0.7523E+00  0.5998E+03
      4.287  0.1402E+02  0.6010E+03
      4.368  0.1822E+02  0.6024E+03
      4.448  0.1266E+02  0.6034E+03
      4.528  0.2524E+02  0.6055E+03
      4.609  0.3334E+02  0.6082E+03
      4.689  0.2784E+02  0.6104E+03
      4.770  0.1552E+02  0.6116E+03
      4.850  0.9353E+01  0.6124E+03
      4.930  0.1384E+02  0.6135E+03
      5.011  0.2292E+02  0.6154E+03
      5.091  0.4192E+02  0.6187E+03
      5.172  0.4294E+02  0.6222E+03
      5.252  0.2549E+02  0.6242E+03
      5.333  0.2040E+02  0.6259E+03
      5.413  0.2663E+02  0.6280E+03
      5.493  0.2634E+02  0.6301E+03
      5.574  0.2107E+02  0.6318E+03
      5.654  0.2426E+02  0.6338E+03
      5.735  0.1643E+02  0.6351E+03
      5.815  0.2030E+02  0.6367E+03
      5.896  0.2744E+02  0.6389E+03
      5.976  0.2745E+02  0.6411E+03
      6.056  0.2306E+02  0.6430E+03
      6.137  0.1584E+02  0.6443E+03
      6.217  0.1243E+02  0.6453E+03
      6.298  0.1528E+02  0.6465E+03
      6.378  0.1425E+02  0.6476E+03
      6.458  0.4629E+01  0.6480E+03
      6.539 -0.3672E-01  0.6480E+03
      6.619 -0.2095E+00  0.6480E+03
      6.700 -0.2026E-01  0.6480E+03
      6.780 -0.4594E-03  0.6480E+03
      6.861 -0.2699E-05  0.6480E+03
      6.941 -0.4208E-08  0.6480E+03
      7.021 -0.1757E-11  0.6480E+03
      7.102  0.0000E+00  0.6480E+03
      7.182  0.0000E+00  0.6480E+03
      7.263  0.0000E+00  0.6480E+03
      7.343  0.0000E+00  0.6480E+03
      7.424  0.0000E+00  0.6480E+03
      7.504  0.0000E+00  0.6480E+03
