       N       E                     dE             d eps       ncg     rms          rms(c)
DAV:   1     0.510339044684E+04    0.51034E+04   -0.21904E+05  3240   0.198E+03
DAV:   2     0.566436066478E+03   -0.45370E+04   -0.43822E+04  3240   0.449E+02
DAV:   3    -0.149538960701E+03   -0.71598E+03   -0.65795E+03  3312   0.224E+02
DAV:   4    -0.215696333312E+03   -0.66157E+02   -0.60558E+02  4512   0.802E+01
DAV:   5    -0.220197045435E+03   -0.45007E+01   -0.43999E+01  4816   0.166E+01    0.540E+01
RMM:   6    -0.201209569450E+03    0.18987E+02   -0.50432E+02  3251   0.106E+02    0.341E+01
RMM:   7    -0.178209494118E+03    0.23000E+02   -0.11197E+02  3241   0.543E+01    0.784E+00
RMM:   8    -0.176923475580E+03    0.12860E+01   -0.70564E+00  3471   0.855E+00    0.557E+00
RMM:   9    -0.176574511751E+03    0.34896E+00   -0.24029E+00  3277   0.588E+00    0.302E+00
RMM:  10    -0.176464933146E+03    0.10958E+00   -0.89198E-01  3492   0.302E+00    0.229E+00
RMM:  11    -0.176432535678E+03    0.32397E-01   -0.30454E-01  3306   0.177E+00    0.135E+00
RMM:  12    -0.176406889883E+03    0.25646E-01   -0.19605E-01  3294   0.169E+00    0.784E-01
RMM:  13    -0.176396713166E+03    0.10177E-01   -0.71682E-02  3564   0.828E-01    0.332E-01
RMM:  14    -0.176394592204E+03    0.21210E-02   -0.27382E-02  3809   0.415E-01    0.254E-01
RMM:  15    -0.176392156635E+03    0.24356E-02   -0.70478E-03  3310   0.285E-01    0.191E-01
RMM:  16    -0.176390218038E+03    0.19386E-02   -0.35341E-03  3322   0.188E-01    0.867E-02
RMM:  17    -0.176390271169E+03   -0.53132E-04   -0.15189E-03  3407   0.128E-01    0.669E-02
RMM:  18    -0.176390691137E+03   -0.41997E-03   -0.75510E-04  3280   0.927E-02    0.425E-02
RMM:  19    -0.176391566134E+03   -0.87500E-03   -0.72288E-04  3379   0.632E-02    0.372E-02
RMM:  20    -0.176391899099E+03   -0.33296E-03   -0.26774E-04  3241   0.560E-02    0.200E-02
RMM:  21    -0.176392356670E+03   -0.45757E-03   -0.15543E-04  3243   0.311E-02    0.156E-02
RMM:  22    -0.176392857283E+03   -0.50061E-03   -0.83999E-05  2854   0.264E-02    0.164E-02
RMM:  23    -0.176393183350E+03   -0.32607E-03   -0.61793E-05  2503   0.216E-02    0.913E-03
RMM:  24    -0.176393411401E+03   -0.22805E-03   -0.18567E-05  1987   0.136E-02    0.761E-03
RMM:  25    -0.176393623113E+03   -0.21171E-03   -0.11841E-05  1927   0.118E-02    0.548E-03
RMM:  26    -0.176393861824E+03   -0.23871E-03   -0.12736E-05  1941   0.913E-03    0.286E-03
RMM:  27    -0.176393902187E+03   -0.40363E-04   -0.28536E-06  1876   0.582E-03    0.174E-03
RMM:  28    -0.176393948514E+03   -0.46327E-04   -0.27749E-06  1887   0.352E-03    0.152E-03
RMM:  29    -0.176393966592E+03   -0.18078E-04   -0.13393E-06  1845   0.308E-03    0.808E-04
RMM:  30    -0.176393969291E+03   -0.26985E-05   -0.37042E-07  1479   0.192E-03
   1 F= -.17639397E+03 E0= -.17637187E+03  d E =-.176394E+03
