<?xml version="1.0" encoding="ISO-8859-1"?>
<modeling>
 <generator>
  <i name="program" type="string">vasp </i>
  <i name="version" type="string">6.4.1  </i>
  <i name="subversion" type="string">05Apr23 (build Jun 16 2023 21:11:36) complex                          parallel </i>
  <i name="platform" type="string">LinuxIFC </i>
  <i name="date" type="string">2026 03 07 </i>
  <i name="time" type="string">16:55:21 </i>
 </generator>
 <incar>
  <i type="string" name="SYSTEM">Bulk Frequency (Finite Difference)</i>
  <i type="string" name="ALGO">F</i>
  <i type="int" name="NELM">   150</i>
  <i type="int" name="NELMIN">     6</i>
  <i type="int" name="IBRION">     2</i>
  <i name="EDIFF">      0.00001000</i>
  <i type="int" name="NSW">     1</i>
  <i type="int" name="ISIF">     2</i>
  <i type="int" name="ISYM">     0</i>
  <i name="ENCUT">    500.00000000</i>
  <i name="POTIM">      0.01500000</i>
  <i type="string" name="LREAL">Auto</i>
  <i type="int" name="ISMEAR">     1</i>
  <i name="SIGMA">      0.10000000</i>
  <i type="logical" name="LWAVE"> F  </i>
  <i type="logical" name="LCHARG"> F  </i>
 </incar>
 <primitive_cell>
  <structure name="primitive_cell" >
   <crystal>
    <varray name="basis" >
     <v>      10.11850195       0.00000000       0.00000000 </v>
     <v>      -5.05925097       8.76287974       0.00000000 </v>
     <v>       0.00000000       0.00000000      18.58887505 </v>
    </varray>
    <i name="volume">   1648.22379336 </i>
    <varray name="rec_basis" >
     <v>       0.09882886       0.05705887      -0.00000000 </v>
     <v>       0.00000000       0.11411774      -0.00000000 </v>
     <v>       0.00000000       0.00000000       0.05379562 </v>
    </varray>
   </crystal>
   <varray name="positions" >
    <v>       0.99904304       0.00090621       0.61211041 </v>
    <v>       0.00015586       0.25029098       0.61424211 </v>
    <v>       0.99785550       0.49818244       0.61332683 </v>
    <v>       0.99577386       0.74883338       0.61118244 </v>
    <v>       0.24461825       0.00349658       0.61785775 </v>
    <v>       0.25038876       0.25251671       0.61203141 </v>
    <v>       0.25028306       0.49816929       0.61333556 </v>
    <v>       0.24714372       0.74430019       0.60079812 </v>
    <v>       0.50889131       0.00349596       0.61783904 </v>
    <v>       0.50343632       0.25687246       0.61055064 </v>
    <v>       0.50086962       0.50136773       0.61349391 </v>
    <v>       0.50303909       0.74882950       0.61118529 </v>
    <v>       0.75186545       0.00092911       0.61210956 </v>
    <v>       0.75212443       0.25252145       0.61203018 </v>
    <v>       0.75047971       0.50135286       0.61349339 </v>
    <v>       0.75038618       0.75071074       0.61329459 </v>
    <v>       0.08333834       0.16669679       0.38889480 </v>
    <v>       0.08329087       0.41658144       0.38881589 </v>
    <v>       0.08324173       0.66661886       0.38874480 </v>
    <v>       0.08328270       0.91671784       0.38880154 </v>
    <v>       0.33333537       0.16668690       0.38887502 </v>
    <v>       0.33334319       0.41662617       0.38884724 </v>
    <v>       0.33337781       0.66661929       0.38874475 </v>
    <v>       0.33337641       0.91675291       0.38874120 </v>
    <v>       0.58335169       0.16668593       0.38887505 </v>
    <v>       0.58336653       0.41667220       0.38889273 </v>
    <v>       0.58337471       0.66665318       0.38883971 </v>
    <v>       0.58343639       0.91671784       0.38880153 </v>
    <v>       0.83335869       0.16669603       0.38889492 </v>
    <v>       0.83328481       0.41662614       0.38884732 </v>
    <v>       0.83327927       0.66665341       0.38883985 </v>
    <v>       0.83336484       0.91667708       0.38887599 </v>
    <v>       0.16663061       0.08335862       0.49997106 </v>
    <v>       0.16663104       0.33320961       0.49993484 </v>
    <v>       0.16617957       0.58235651       0.49922243 </v>
    <v>       0.16616722       0.83380641       0.49920896 </v>
    <v>       0.41681461       0.08362931       0.49981018 </v>
    <v>       0.41664571       0.33340356       0.50001824 </v>
    <v>       0.41682090       0.58318171       0.49982316 </v>
    <v>       0.41763983       0.83380691       0.49920845 </v>
    <v>       0.66672856       0.08335851       0.49997100 </v>
    <v>       0.66675827       0.33340352       0.50001867 </v>
    <v>       0.66664242       0.58329966       0.49995707 </v>
    <v>       0.66688149       0.83338414       0.49988368 </v>
    <v>       0.91672152       0.08343114       0.50002006 </v>
    <v>       0.91657885       0.33320917       0.49993500 </v>
    <v>       0.91636061       0.58318032       0.49982338 </v>
    <v>       0.91650190       0.83338303       0.49988432 </v>
    <v>       0.35847512       0.96690304       0.68982277 </v>
    <v>       0.39203977       0.03392248       0.73480591 </v>
    <v>       0.24171629       0.73359511       0.72654997 </v>
   </varray>
  </structure>
  <varray name="primitive_index" >
   <v type="int" >        1 </v>
   <v type="int" >        2 </v>
   <v type="int" >        3 </v>
   <v type="int" >        4 </v>
   <v type="int" >        5 </v>
   <v type="int" >        6 </v>
   <v type="int" >        7 </v>
   <v type="int" >        8 </v>
   <v type="int" >        9 </v>
   <v type="int" >       10 </v>
   <v type="int" >       11 </v>
   <v type="int" >       12 </v>
   <v type="int" >       13 </v>
   <v type="int" >       14 </v>
   <v type="int" >       15 </v>
   <v type="int" >       16 </v>
   <v type="int" >       17 </v>
   <v type="int" >       18 </v>
   <v type="int" >       19 </v>
   <v type="int" >       20 </v>
   <v type="int" >       21 </v>
   <v type="int" >       22 </v>
   <v type="int" >       23 </v>
   <v type="int" >       24 </v>
   <v type="int" >       25 </v>
   <v type="int" >       26 </v>
   <v type="int" >       27 </v>
   <v type="int" >       28 </v>
   <v type="int" >       29 </v>
   <v type="int" >       30 </v>
   <v type="int" >       31 </v>
   <v type="int" >       32 </v>
   <v type="int" >       33 </v>
   <v type="int" >       34 </v>
   <v type="int" >       35 </v>
   <v type="int" >       36 </v>
   <v type="int" >       37 </v>
   <v type="int" >       38 </v>
   <v type="int" >       39 </v>
   <v type="int" >       40 </v>
   <v type="int" >       41 </v>
   <v type="int" >       42 </v>
   <v type="int" >       43 </v>
   <v type="int" >       44 </v>
   <v type="int" >       45 </v>
   <v type="int" >       46 </v>
   <v type="int" >       47 </v>
   <v type="int" >       48 </v>
   <v type="int" >       49 </v>
   <v type="int" >       50 </v>
   <v type="int" >       51 </v>
  </varray>
 </primitive_cell>
 <kpoints>
  <generation param="Gamma">
   <v type="int" name="divisions">       3        3        1 </v>
   <v name="usershift">      0.00000000       0.00000000       0.00000000 </v>
   <v name="genvec1">      0.33333333       0.00000000       0.00000000 </v>
   <v name="genvec2">      0.00000000       0.33333333       0.00000000 </v>
   <v name="genvec3">      0.00000000       0.00000000       1.00000000 </v>
   <v name="shift">      0.00000000       0.00000000       0.00000000 </v>
  </generation>
  <varray name="kpointlist" >
   <v>       0.00000000       0.00000000       0.00000000 </v>
   <v>       0.33333333       0.00000000      -0.00000000 </v>
   <v>       0.00000000       0.33333333      -0.00000000 </v>
   <v>      -0.33333333       0.33333333      -0.00000000 </v>
   <v>       0.33333333       0.33333333      -0.00000000 </v>
  </varray>
  <varray name="weights" >
   <v>       0.11111111 </v>
   <v>       0.22222222 </v>
   <v>       0.22222222 </v>
   <v>       0.22222222 </v>
   <v>       0.22222222 </v>
  </varray>
 </kpoints>
 <parameters>
  <separator name="general" >
   <i type="string" name="SYSTEM">Bulk Frequency (Finite Difference)</i>
   <i type="logical" name="LCOMPAT"> F  </i>
  </separator>
  <separator name="electronic" >
   <i type="string" name="PREC">normal</i>
   <i name="ENMAX">    500.00000000</i>
   <i name="ENAUG">    627.11200000</i>
   <i name="EDIFF">      0.00001000</i>
   <i type="int" name="IALGO">    68</i>
   <i type="int" name="IWAVPR">    11</i>
   <i type="int" name="NBANDS">   324</i>
   <i type="int" name="NBANDSLOW">    -1</i>
   <i type="int" name="NBANDSHIGH">    -1</i>
   <i name="NELECT">    535.00000000</i>
   <i type="int" name="TURBO">     0</i>
   <i type="int" name="IRESTART">     0</i>
   <i type="int" name="NREBOOT">     0</i>
   <i type="int" name="NMIN">     0</i>
   <i name="EREF">      0.00000000</i>
   <separator name="electronic smearing" >
    <i type="int" name="ISMEAR">     1</i>
    <i name="SIGMA">      0.10000000</i>
    <i name="KSPACING">      0.50000000</i>
    <i type="logical" name="KGAMMA"> T  </i>
    <i type="logical" name="KBLOWUP"> T  </i>
   </separator>
   <separator name="electronic projectors" >
    <i type="logical" name="LREAL"> T  </i>
    <v name="ROPT">     -0.00050000     -0.00050000     -0.00050000</v>
    <i type="int" name="LMAXPAW">  -100</i>
    <i type="int" name="LMAXMIX">     2</i>
    <i type="logical" name="NLSPLINE"> F  </i>
   </separator>
   <separator name="electronic startup" >
    <i type="int" name="ISTART">     0</i>
    <i type="int" name="ICHARG">     2</i>
    <i type="int" name="INIWAV">     1</i>
   </separator>
   <separator name="electronic spin" >
    <i type="int" name="ISPIN">     1</i>
    <i type="logical" name="LNONCOLLINEAR"> F  </i>
    <v name="MAGMOM">      1.00000000      1.00000000      1.00000000      1.00000000      1.00000000      1.00000000      1.00000000      1.00000000      1.00000000      1.00000000      1.00000000      1.00000000      1.00000000      1.00000000      1.00000000      1.00000000      1.00000000      1.00000000      1.00000000      1.00000000
      1.00000000      1.00000000      1.00000000      1.00000000      1.00000000      1.00000000      1.00000000      1.00000000      1.00000000      1.00000000      1.00000000      1.00000000      1.00000000      1.00000000      1.00000000      1.00000000      1.00000000      1.00000000      1.00000000      1.00000000
      1.00000000      1.00000000      1.00000000      1.00000000      1.00000000      1.00000000      1.00000000      1.00000000      1.00000000      1.00000000      1.00000000</v>
    <i name="NUPDOWN">     -1.00000000</i>
    <i type="logical" name="LSORBIT"> F  </i>
    <v name="SAXIS">      0.00000000      0.00000000      1.00000000</v>
    <i type="logical" name="LSPIRAL"> F  </i>
    <v name="QSPIRAL">      0.00000000      0.00000000      0.00000000</v>
    <i type="logical" name="LZEROZ"> F  </i>
   </separator>
   <separator name="electronic exchange-correlation" >
    <i type="logical" name="LASPH"> F  </i>
    <i type="logical" name="LMETAGGA"> F  </i>
   </separator>
   <separator name="electronic convergence" >
    <i type="int" name="NELM">   150</i>
    <i type="int" name="NELMDL">    -5</i>
    <i type="int" name="NELMIN">     6</i>
    <i name="ENINI">    500.00000000</i>
    <separator name="electronic convergence detail" >
     <i type="logical" name="LDIAG"> T  </i>
     <i type="logical" name="LSUBROT"> F  </i>
     <i name="WEIMIN">      0.00100000</i>
     <i name="EBREAK">      0.00000001</i>
     <i name="DEPER">      0.30000000</i>
     <i type="int" name="NRMM">     4</i>
     <i name="TIME">      0.40000000</i>
    </separator>
   </separator>
   <separator name="electronic mixer" >
    <i name="AMIX">      0.40000000</i>
    <i name="BMIX">      1.00000000</i>
    <i name="AMIN">      0.10000000</i>
    <i name="AMIX_MAG">      1.60000000</i>
    <i name="BMIX_MAG">      1.00000000</i>
    <separator name="electronic mixer details" >
     <i type="int" name="IMIX">     4</i>
     <i type="logical" name="MIXFIRST"> F  </i>
     <i type="int" name="MAXMIX">   -45</i>
     <i name="WC">    100.00000000</i>
     <i type="int" name="INIMIX">     1</i>
     <i type="int" name="MIXPRE">     1</i>
     <i type="int" name="MREMOVE">     5</i>
    </separator>
   </separator>
   <separator name="electronic dipolcorrection" >
    <i type="logical" name="LDIPOL"> F  </i>
    <i type="logical" name="LMONO"> F  </i>
    <i type="int" name="IDIPOL">     0</i>
    <i name="EPSILON">      1.00000000</i>
    <v name="DIPOL">   -100.00000000   -100.00000000   -100.00000000</v>
    <i name="EFIELD">      0.00000000</i>
   </separator>
  </separator>
  <separator name="grids" >
   <i type="int" name="NGX">    56</i>
   <i type="int" name="NGY">    56</i>
   <i type="int" name="NGZ">   108</i>
   <i type="int" name="NGXF">   112</i>
   <i type="int" name="NGYF">   112</i>
   <i type="int" name="NGZF">   216</i>
   <i type="logical" name="ADDGRID"> F  </i>
  </separator>
  <separator name="ionic" >
   <i type="int" name="NSW">     1</i>
   <i type="int" name="IBRION">     2</i>
   <i type="int" name="MDALGO">     0</i>
   <i type="int" name="ISIF">     2</i>
   <i name="PSTRESS">      0.00000000</i>
   <i name="EDIFFG">      0.00010000</i>
   <i type="int" name="NFREE">     1</i>
   <i name="POTIM">      0.01500000</i>
   <i name="SMASS">     -3.00000000</i>
   <i name="SCALEE">      1.00000000</i>
  </separator>
  <separator name="ionic md" >
   <i name="TEBEG">      0.00010000</i>
   <i name="TEEND">      0.00010000</i>
   <i type="int" name="NBLOCK">     1</i>
   <i type="int" name="KBLOCK">     1</i>
   <i type="int" name="NPACO">   256</i>
   <i name="APACO">     10.00000000</i>
  </separator>
  <separator name="symmetry" >
   <i type="int" name="ISYM">     0</i>
   <i name="SYMPREC">      0.00001000</i>
  </separator>
  <separator name="dos" >
   <i type="int" name="LORBIT">     0</i>
   <v name="RWIGS">     -1.00000000     -1.00000000     -1.00000000</v>
   <i type="int" name="NEDOS">   301</i>
   <i name="EMIN">     10.00000000</i>
   <i name="EMAX">    -10.00000000</i>
   <i name="EFERMI">      0.00000000</i>
  </separator>
  <separator name="writing" >
   <i type="int" name="NWRITE">     2</i>
   <i type="logical" name="LWAVE"> F  </i>
   <i type="logical" name="LDOWNSAMPLE"> F  </i>
   <i type="logical" name="LCHARG"> F  </i>
   <i type="logical" name="LPARD"> F  </i>
   <i type="logical" name="LVTOT"> F  </i>
   <i type="logical" name="LVHAR"> F  </i>
   <i type="logical" name="LELF"> F  </i>
   <i type="logical" name="LOPTICS"> F  </i>
   <v name="STM">      0.00000000      0.00000000      0.00000000      0.00000000      0.00000000      0.00000000      0.00000000</v>
  </separator>
  <separator name="performance" >
   <i type="int" name="NPAR">     4</i>
   <i type="int" name="NSIM">     4</i>
   <i type="int" name="NBLK">    -1</i>
   <i type="logical" name="LPLANE"> T  </i>
   <i type="logical" name="LSCALAPACK"> T  </i>
   <i type="logical" name="LSCAAWARE"> F  </i>
   <i type="logical" name="LSCALU"> F  </i>
   <i type="logical" name="LASYNC"> F  </i>
   <i type="logical" name="LORBITALREAL"> F  </i>
  </separator>
  <separator name="miscellaneous" >
   <i type="int" name="IDIOT">     3</i>
   <i type="int" name="PHON_NSTRUCT">    -1</i>
   <i type="logical" name="LMUSIC"> F  </i>
   <v name="POMASS">     63.54600000     14.00100000      1.00000000</v>
   <v name="DARWINR">      0.00000000      0.00000000      0.00000000</v>
   <v name="DARWINV">      1.00000000      1.00000000      1.00000000</v>
   <i type="logical" name="LCORR"> T  </i>
  </separator>
  <i type="logical" name="GGA_COMPAT"> T  </i>
  <i type="logical" name="LBERRY"> F  </i>
  <i type="int" name="ICORELEVEL">     0</i>
  <i type="logical" name="LDAU"> F  </i>
  <i type="int" name="I_CONSTRAINED_M">     0</i>
  <separator name="electronic exchange-correlation" >
   <i type="string" name="GGA">--</i>
   <i type="int" name="VOSKOWN">     0</i>
   <i type="logical" name="LHFCALC"> F  </i>
   <i type="string" name="PRECFOCK"></i>
   <i type="logical" name="LSYMGRAD"> F  </i>
   <i type="logical" name="LHFONE"> F  </i>
   <i type="logical" name="LRHFCALC"> F  </i>
   <i type="logical" name="LTHOMAS"> F  </i>
   <i type="logical" name="LMODELHF"> F  </i>
   <i type="logical" name="LFOCKACE"> F  </i>
   <i name="ENCUT4O">     -1.00000000</i>
   <i type="int" name="EXXOEP">     0</i>
   <i type="int" name="FOURORBIT">     0</i>
   <i name="AEXX">      0.00000000</i>
   <i name="HFALPHA">      0.00000000</i>
   <i name="MCALPHA">      0.00000000</i>
   <i name="ALDAX">      1.00000000</i>
   <i name="AGGAX">      1.00000000</i>
   <i name="ALDAC">      1.00000000</i>
   <i name="AGGAC">      1.00000000</i>
   <i type="int" name="NKREDX">     1</i>
   <i type="int" name="NKREDY">     1</i>
   <i type="int" name="NKREDZ">     1</i>
   <i type="logical" name="SHIFTRED"> F  </i>
   <i type="logical" name="ODDONLY"> F  </i>
   <i type="logical" name="EVENONLY"> F  </i>
   <i type="int" name="LMAXFOCK">     0</i>
   <i type="int" name="NMAXFOCKAE">     0</i>
   <i type="logical" name="LFOCKAEDFT"> F  </i>
   <i name="HFSCREEN">      0.00000000</i>
   <i name="HFSCREENC">      0.00000000</i>
   <i type="int" name="NBANDSGWLOW">     0</i>
  </separator>
  <separator name="vdW DFT" >
   <i type="logical" name="LUSE_VDW"> F  </i>
   <i type="int" name="IVDW_NL">     1</i>
   <i type="logical" name="LSPIN_VDW"> F  </i>
   <i name="Zab_VDW">     -0.84910000</i>
   <i name="PARAM1">      0.12340000</i>
   <i name="PARAM2">      1.00000000</i>
   <i name="PARAM3">      0.00000000</i>
  </separator>
  <separator name="model GW" >
   <i type="int" name="MODEL_GW">     0</i>
   <i name="MODEL_EPS0">     19.39086816</i>
   <i name="MODEL_ALPHA">      1.00000000</i>
  </separator>
  <separator name="linear response parameters" >
   <i type="logical" name="LEPSILON"> F  </i>
   <i type="logical" name="LRPA"> F  </i>
   <i type="logical" name="LNABLA"> F  </i>
   <i type="logical" name="LVEL"> F  </i>
   <i name="CSHIFT">      0.10000000</i>
   <i name="OMEGAMAX">     -1.00000000</i>
   <i name="DEG_THRESHOLD">      0.00200000</i>
   <i name="RTIME">     -0.10000000</i>
   <i name="WPLASMAI">      0.00000000</i>
   <v name="DFIELD">      0.00000000      0.00000000      0.00000000</v>
   <v name="WPLASMA">      0.00000000      0.00000000      0.00000000      0.00000000      0.00000000      0.00000000      0.00000000      0.00000000      0.00000000</v>
  </separator>
  <separator name="orbital magnetization" >
   <i type="logical" name="NUCIND"> F  </i>
   <v name="MAGPOS">      0.00000000      0.00000000      0.00000000</v>
   <i type="logical" name="LNICSALL"> T  </i>
   <i type="logical" name="ORBITALMAG"> F  </i>
   <i type="logical" name="LMAGBLOCH"> F  </i>
   <i type="logical" name="LCHIMAG"> F  </i>
   <i type="logical" name="LGAUGE"> T  </i>
   <i type="int" name="MAGATOM">     0</i>
   <v name="MAGDIPOL">      0.00000000      0.00000000      0.00000000</v>
   <v name="AVECCONST">      0.00000000      0.00000000      0.00000000</v>
  </separator>
  <separator name="response functions" >
   <i type="logical" name="LALL_IN_ONE"> F  </i>
   <i type="int" name="IALL_IN_ONE">    -1</i>
   <i type="int" name="NBANDS_WAVE">    -1</i>
   <i type="logical" name="LFINITE_TEMPERATURE"> F  </i>
   <i type="logical" name="LADDER"> F  </i>
   <i type="logical" name="LRPAFORCE"> F  </i>
   <i type="logical" name="LFXC"> F  </i>
   <i type="logical" name="LHARTREE"> T  </i>
   <i type="int" name="IBSE">     0</i>
   <v type="int" name="KPOINT">    -1     0     0     0</v>
   <i type="logical" name="LTCTC"> F  </i>
   <i type="logical" name="LTCTE"> F  </i>
   <i type="logical" name="LTETE"> F  </i>
   <i type="logical" name="LTRIPLET"> F  </i>
   <i type="logical" name="LFXCEPS"> F  </i>
   <i type="logical" name="LFXHEG"> F  </i>
   <i type="int" name="NATURALO">     2</i>
   <i type="logical" name="LHOLEGF"> F  </i>
   <i type="logical" name="L2ORDER"> F  </i>
   <i type="logical" name="LDMP1"> F  </i>
   <i type="logical" name="LMP2LT"> F  </i>
   <i type="logical" name="LSMP2LT"> F  </i>
   <i type="logical" name="LGWLF"> F  </i>
   <i name="ENCUTGW">     -1.60000002</i>
   <i name="ENCUTGWSOFT">     -1.60000002</i>
   <i name="ENCUTLF">     -1.00000000</i>
   <i type="logical" name="LESF_SPLINES"> F  </i>
   <i type="int" name="LMAXMP2">    -1</i>
   <i name="SCISSOR">      0.00000000</i>
   <i type="int" name="NOMEGA">     0</i>
   <i type="int" name="NOMEGAR">     0</i>
   <i type="int" name="NBANDSGW">    -1</i>
   <i type="int" name="NBANDSO">    -1</i>
   <i type="int" name="NBANDSV">    -1</i>
   <i type="int" name="NELMGW">     1</i>
   <i type="int" name="NELMHF">     1</i>
   <i type="int" name="DIM">     3</i>
   <i type="int" name="IESPILON">     4</i>
   <i type="int" name="ANTIRES">     0</i>
   <i name="OMEGAMAX">    -30.00000000</i>
   <i name="OMEGAMIN">    -30.00000000</i>
   <i name="OMEGATL">   -200.00000000</i>
   <i type="int" name="OMEGAGRID">     0</i>
   <i name="CSHIFT">     -0.10000000</i>
   <i type="logical" name="LSELFENERGY"> F  </i>
   <i type="logical" name="LSPECTRAL"> F  </i>
   <i type="logical" name="LSPECTRALGW"> F  </i>
   <i type="logical" name="LSINGLES"> F  </i>
   <i type="logical" name="LFERMIGW"> F  </i>
   <i type="logical" name="ODDONLYGW"> F  </i>
   <i type="logical" name="EVENONLYGW"> F  </i>
   <i type="int" name="NKREDLFX">     1</i>
   <i type="int" name="NKREDLFY">     1</i>
   <i type="int" name="NKREDLFZ">     1</i>
   <i type="int" name="MAXMEM">  2800</i>
   <i type="int" name="TELESCOPE">     0</i>
   <i type="int" name="NTAUPAR">    -1</i>
   <i type="int" name="NOMEGAPAR">    -1</i>
   <i name="DAMP_NEWTON">      0.80000001</i>
   <i name="LAMBDA">      1.00000000</i>
  </separator>
  <separator name="External order field" >
   <i name="OFIELD_KAPPA">      0.00000000</i>
   <v name="OFIELD_K">      0.00000000      0.00000000      0.00000000</v>
   <i name="OFIELD_Q6_NEAR">      0.00000000</i>
   <i name="OFIELD_Q6_FAR">      0.00000000</i>
   <i name="OFIELD_A">      0.00000000</i>
  </separator>
  <separator name="optional k-points parameters" >
   <i type="int" name="KPOINTS_OPT_MODE">     1</i>
   <i type="logical" name="LKPOINTS_OPT"> F  </i>
  </separator>
  <separator name="solvation model" >
   <i type="logical" name="LSOL"> F  </i>
  </separator>
 </parameters>
 <atominfo>
  <atoms>      51 </atoms>
  <types>       3 </types>
  <array name="atoms" >
   <dimension dim="1">ion</dimension>
   <field type="string">element</field>
   <field type="int">atomtype</field>
   <set>
    <rc><c>Cu</c><c>   1</c></rc>
    <rc><c>Cu</c><c>   1</c></rc>
    <rc><c>Cu</c><c>   1</c></rc>
    <rc><c>Cu</c><c>   1</c></rc>
    <rc><c>Cu</c><c>   1</c></rc>
    <rc><c>Cu</c><c>   1</c></rc>
    <rc><c>Cu</c><c>   1</c></rc>
    <rc><c>Cu</c><c>   1</c></rc>
    <rc><c>Cu</c><c>   1</c></rc>
    <rc><c>Cu</c><c>   1</c></rc>
    <rc><c>Cu</c><c>   1</c></rc>
    <rc><c>Cu</c><c>   1</c></rc>
    <rc><c>Cu</c><c>   1</c></rc>
    <rc><c>Cu</c><c>   1</c></rc>
    <rc><c>Cu</c><c>   1</c></rc>
    <rc><c>Cu</c><c>   1</c></rc>
    <rc><c>Cu</c><c>   1</c></rc>
    <rc><c>Cu</c><c>   1</c></rc>
    <rc><c>Cu</c><c>   1</c></rc>
    <rc><c>Cu</c><c>   1</c></rc>
    <rc><c>Cu</c><c>   1</c></rc>
    <rc><c>Cu</c><c>   1</c></rc>
    <rc><c>Cu</c><c>   1</c></rc>
    <rc><c>Cu</c><c>   1</c></rc>
    <rc><c>Cu</c><c>   1</c></rc>
    <rc><c>Cu</c><c>   1</c></rc>
    <rc><c>Cu</c><c>   1</c></rc>
    <rc><c>Cu</c><c>   1</c></rc>
    <rc><c>Cu</c><c>   1</c></rc>
    <rc><c>Cu</c><c>   1</c></rc>
    <rc><c>Cu</c><c>   1</c></rc>
    <rc><c>Cu</c><c>   1</c></rc>
    <rc><c>Cu</c><c>   1</c></rc>
    <rc><c>Cu</c><c>   1</c></rc>
    <rc><c>Cu</c><c>   1</c></rc>
    <rc><c>Cu</c><c>   1</c></rc>
    <rc><c>Cu</c><c>   1</c></rc>
    <rc><c>Cu</c><c>   1</c></rc>
    <rc><c>Cu</c><c>   1</c></rc>
    <rc><c>Cu</c><c>   1</c></rc>
    <rc><c>Cu</c><c>   1</c></rc>
    <rc><c>Cu</c><c>   1</c></rc>
    <rc><c>Cu</c><c>   1</c></rc>
    <rc><c>Cu</c><c>   1</c></rc>
    <rc><c>Cu</c><c>   1</c></rc>
    <rc><c>Cu</c><c>   1</c></rc>
    <rc><c>Cu</c><c>   1</c></rc>
    <rc><c>Cu</c><c>   1</c></rc>
    <rc><c>N </c><c>   2</c></rc>
    <rc><c>H </c><c>   3</c></rc>
    <rc><c>H </c><c>   3</c></rc>
   </set>
  </array>
  <array name="atomtypes" >
   <dimension dim="1">type</dimension>
   <field type="int">atomspertype</field>
   <field type="string">element</field>
   <field>mass</field>
   <field>valence</field>
   <field type="string">pseudopotential</field>
   <set>
    <rc><c>  48</c><c>Cu</c><c>     63.54600000</c><c>     11.00000000</c><c>  PAW_PBE Cu 22Jun2005                  </c></rc>
    <rc><c>   1</c><c>N </c><c>     14.00100000</c><c>      5.00000000</c><c>  PAW_PBE N 08Apr2002                   </c></rc>
    <rc><c>   2</c><c>H </c><c>      1.00000000</c><c>      1.00000000</c><c>  PAW_PBE H 15Jun2001                   </c></rc>
   </set>
  </array>
 </atominfo>
 <structure name="initialpos" >
  <crystal>
   <varray name="basis" >
    <v>      10.11850195       0.00000000       0.00000000 </v>
    <v>      -5.05925097       8.76287974       0.00000000 </v>
    <v>       0.00000000       0.00000000      18.58887505 </v>
   </varray>
   <i name="volume">   1648.22379336 </i>
   <varray name="rec_basis" >
    <v>       0.09882886       0.05705887      -0.00000000 </v>
    <v>       0.00000000       0.11411774      -0.00000000 </v>
    <v>       0.00000000       0.00000000       0.05379562 </v>
   </varray>
  </crystal>
  <varray name="positions" >
   <v>       0.99904304       0.00090621       0.61211041 </v>
   <v>       0.00015586       0.25029098       0.61424211 </v>
   <v>       0.99785550       0.49818244       0.61332683 </v>
   <v>       0.99577386       0.74883338       0.61118244 </v>
   <v>       0.24461825       0.00349658       0.61785775 </v>
   <v>       0.25038876       0.25251671       0.61203141 </v>
   <v>       0.25028306       0.49816929       0.61333556 </v>
   <v>       0.24714372       0.74430019       0.60079812 </v>
   <v>       0.50889131       0.00349596       0.61783904 </v>
   <v>       0.50343632       0.25687246       0.61055064 </v>
   <v>       0.50086962       0.50136773       0.61349391 </v>
   <v>       0.50303909       0.74882950       0.61118529 </v>
   <v>       0.75186545       0.00092911       0.61210956 </v>
   <v>       0.75212443       0.25252145       0.61203018 </v>
   <v>       0.75047971       0.50135286       0.61349339 </v>
   <v>       0.75038618       0.75071074       0.61329459 </v>
   <v>       0.08333834       0.16669679       0.38889480 </v>
   <v>       0.08329087       0.41658144       0.38881589 </v>
   <v>       0.08324173       0.66661886       0.38874480 </v>
   <v>       0.08328270       0.91671784       0.38880154 </v>
   <v>       0.33333537       0.16668690       0.38887502 </v>
   <v>       0.33334319       0.41662617       0.38884724 </v>
   <v>       0.33337781       0.66661929       0.38874475 </v>
   <v>       0.33337641       0.91675291       0.38874120 </v>
   <v>       0.58335169       0.16668593       0.38887505 </v>
   <v>       0.58336653       0.41667220       0.38889273 </v>
   <v>       0.58337471       0.66665318       0.38883971 </v>
   <v>       0.58343639       0.91671784       0.38880153 </v>
   <v>       0.83335869       0.16669603       0.38889492 </v>
   <v>       0.83328481       0.41662614       0.38884732 </v>
   <v>       0.83327927       0.66665341       0.38883985 </v>
   <v>       0.83336484       0.91667708       0.38887599 </v>
   <v>       0.16663061       0.08335862       0.49997106 </v>
   <v>       0.16663104       0.33320961       0.49993484 </v>
   <v>       0.16617957       0.58235651       0.49922243 </v>
   <v>       0.16616722       0.83380641       0.49920896 </v>
   <v>       0.41681461       0.08362931       0.49981018 </v>
   <v>       0.41664571       0.33340356       0.50001824 </v>
   <v>       0.41682090       0.58318171       0.49982316 </v>
   <v>       0.41763983       0.83380691       0.49920845 </v>
   <v>       0.66672856       0.08335851       0.49997100 </v>
   <v>       0.66675827       0.33340352       0.50001867 </v>
   <v>       0.66664242       0.58329966       0.49995707 </v>
   <v>       0.66688149       0.83338414       0.49988368 </v>
   <v>       0.91672152       0.08343114       0.50002006 </v>
   <v>       0.91657885       0.33320917       0.49993500 </v>
   <v>       0.91636061       0.58318032       0.49982338 </v>
   <v>       0.91650190       0.83338303       0.49988432 </v>
   <v>       0.35847512       0.96690304       0.68982277 </v>
   <v>       0.39203977       0.03392248       0.73480591 </v>
   <v>       0.24171629       0.73359511       0.72654997 </v>
  </varray>
 </structure>
 <calculation>
  <scstep>
   <time name="dav">    1.93    2.02</time>
   <time name="total">    1.96    2.08</time>
   <energy>
    <i name="alphaZ">   1044.42981019 </i>
    <i name="ewald"> 153167.80438941 </i>
    <i name="hartreedc">-217348.55329917 </i>
    <i name="XCdc">   2209.72928957 </i>
    <i name="pawpsdc">  59163.12046064 </i>
    <i name="pawaedc"> -64244.73594820 </i>
    <i name="eentropy">     -0.00160564 </i>
    <i name="bandstr">   4055.21546887 </i>
    <i name="atom">  67056.38188117 </i>
    <i name="e_fr_energy">   5103.39044684 </i>
    <i name="e_wo_entrp">   5103.39205247 </i>
    <i name="e_0_energy">   5103.39098205 </i>
   </energy>
  </scstep>
  <scstep>
   <time name="dav">   18.32   18.46</time>
   <time name="total">   18.33   18.46</time>
   <energy>
    <i name="e_fr_energy">    566.43606648 </i>
    <i name="e_wo_entrp">    566.44691182 </i>
    <i name="e_0_energy">    566.43968159 </i>
   </energy>
  </scstep>
  <scstep>
   <time name="dav">    1.87    1.88</time>
   <time name="total">    1.87    1.88</time>
   <energy>
    <i name="e_fr_energy">   -149.53896070 </i>
    <i name="e_wo_entrp">   -149.54545079 </i>
    <i name="e_0_energy">   -149.54112406 </i>
   </energy>
  </scstep>
  <scstep>
   <time name="dav">    2.45    2.47</time>
   <time name="total">    2.45    2.47</time>
   <energy>
    <i name="e_fr_energy">   -215.69633331 </i>
    <i name="e_wo_entrp">   -215.67565573 </i>
    <i name="e_0_energy">   -215.68944078 </i>
   </energy>
  </scstep>
  <scstep>
   <time name="dav">    2.55    2.57</time>
   <time name="total">    2.61    2.63</time>
   <energy>
    <i name="e_fr_energy">   -220.19704543 </i>
    <i name="e_wo_entrp">   -220.19018484 </i>
    <i name="e_0_energy">   -220.19475857 </i>
   </energy>
  </scstep>
  <scstep>
   <time name="diag">    0.31    0.32</time>
   <time name="diis">    0.72    0.72</time>
   <time name="orth">    0.09    0.09</time>
   <time name="total">    1.20    1.22</time>
   <energy>
    <i name="e_fr_energy">   -201.20956945 </i>
    <i name="e_wo_entrp">   -201.21413463 </i>
    <i name="e_0_energy">   -201.21109118 </i>
   </energy>
  </scstep>
  <scstep>
   <time name="diag">    0.31    0.31</time>
   <time name="diis">    0.72    0.73</time>
   <time name="orth">    0.09    0.09</time>
   <time name="total">    1.19    1.20</time>
   <energy>
    <i name="e_fr_energy">   -178.20949412 </i>
    <i name="e_wo_entrp">   -178.15125164 </i>
    <i name="e_0_energy">   -178.19007996 </i>
   </energy>
  </scstep>
  <scstep>
   <time name="diag">    0.31    0.31</time>
   <time name="diis">    0.77    0.77</time>
   <time name="orth">    0.09    0.09</time>
   <time name="total">    1.24    1.25</time>
   <energy>
    <i name="e_fr_energy">   -176.92347558 </i>
    <i name="e_wo_entrp">   -176.85181565 </i>
    <i name="e_0_energy">   -176.89958894 </i>
   </energy>
  </scstep>
  <scstep>
   <time name="diag">    0.31    0.31</time>
   <time name="diis">    0.72    0.72</time>
   <time name="orth">    0.09    0.09</time>
   <time name="total">    1.18    1.19</time>
   <energy>
    <i name="e_fr_energy">   -176.57451175 </i>
    <i name="e_wo_entrp">   -176.51110359 </i>
    <i name="e_0_energy">   -176.55337570 </i>
   </energy>
  </scstep>
  <scstep>
   <time name="diag">    0.31    0.31</time>
   <time name="diis">    0.76    0.77</time>
   <time name="orth">    0.09    0.09</time>
   <time name="total">    1.23    1.24</time>
   <energy>
    <i name="e_fr_energy">   -176.46493315 </i>
    <i name="e_wo_entrp">   -176.39340674 </i>
    <i name="e_0_energy">   -176.44109101 </i>
   </energy>
  </scstep>
  <scstep>
   <time name="diag">    0.31    0.31</time>
   <time name="diis">    0.73    0.73</time>
   <time name="orth">    0.09    0.09</time>
   <time name="total">    1.19    1.20</time>
   <energy>
    <i name="e_fr_energy">   -176.43253568 </i>
    <i name="e_wo_entrp">   -176.36911947 </i>
    <i name="e_0_energy">   -176.41139694 </i>
   </energy>
  </scstep>
  <scstep>
   <time name="diag">    0.31    0.31</time>
   <time name="diis">    0.72    0.73</time>
   <time name="orth">    0.09    0.09</time>
   <time name="total">    1.19    1.19</time>
   <energy>
    <i name="e_fr_energy">   -176.40688988 </i>
    <i name="e_wo_entrp">   -176.33960288 </i>
    <i name="e_0_energy">   -176.38446088 </i>
   </energy>
  </scstep>
  <scstep>
   <time name="diag">    0.31    0.31</time>
   <time name="diis">    0.78    0.79</time>
   <time name="orth">    0.09    0.09</time>
   <time name="total">    1.26    1.26</time>
   <energy>
    <i name="e_fr_energy">   -176.39671317 </i>
    <i name="e_wo_entrp">   -176.33027750 </i>
    <i name="e_0_energy">   -176.37456794 </i>
   </energy>
  </scstep>
  <scstep>
   <time name="diag">    0.31    0.31</time>
   <time name="diis">    0.83    0.84</time>
   <time name="orth">    0.09    0.09</time>
   <time name="total">    1.30    1.31</time>
   <energy>
    <i name="e_fr_energy">   -176.39459220 </i>
    <i name="e_wo_entrp">   -176.32708111 </i>
    <i name="e_0_energy">   -176.37208851 </i>
   </energy>
  </scstep>
  <scstep>
   <time name="diag">    0.31    0.31</time>
   <time name="diis">    0.73    0.73</time>
   <time name="orth">    0.09    0.09</time>
   <time name="total">    1.19    1.20</time>
   <energy>
    <i name="e_fr_energy">   -176.39215663 </i>
    <i name="e_wo_entrp">   -176.32519094 </i>
    <i name="e_0_energy">   -176.36983474 </i>
   </energy>
  </scstep>
  <scstep>
   <time name="diag">    0.31    0.31</time>
   <time name="diis">    0.73    0.74</time>
   <time name="orth">    0.09    0.09</time>
   <time name="total">    1.20    1.20</time>
   <energy>
    <i name="e_fr_energy">   -176.39021804 </i>
    <i name="e_wo_entrp">   -176.32367720 </i>
    <i name="e_0_energy">   -176.36803776 </i>
   </energy>
  </scstep>
  <scstep>
   <time name="diag">    0.31    0.31</time>
   <time name="diis">    0.75    0.75</time>
   <time name="orth">    0.09    0.09</time>
   <time name="total">    1.21    1.22</time>
   <energy>
    <i name="e_fr_energy">   -176.39027117 </i>
    <i name="e_wo_entrp">   -176.32376980 </i>
    <i name="e_0_energy">   -176.36810405 </i>
   </energy>
  </scstep>
  <scstep>
   <time name="diag">    0.31    0.31</time>
   <time name="diis">    0.73    0.73</time>
   <time name="orth">    0.09    0.10</time>
   <time name="total">    1.20    1.21</time>
   <energy>
    <i name="e_fr_energy">   -176.39069114 </i>
    <i name="e_wo_entrp">   -176.32416591 </i>
    <i name="e_0_energy">   -176.36851606 </i>
   </energy>
  </scstep>
  <scstep>
   <time name="diag">    0.31    0.31</time>
   <time name="diis">    0.74    0.74</time>
   <time name="orth">    0.09    0.09</time>
   <time name="total">    1.20    1.21</time>
   <energy>
    <i name="e_fr_energy">   -176.39156613 </i>
    <i name="e_wo_entrp">   -176.32523786 </i>
    <i name="e_0_energy">   -176.36945671 </i>
   </energy>
  </scstep>
  <scstep>
   <time name="diag">    0.31    0.31</time>
   <time name="diis">    0.71    0.72</time>
   <time name="orth">    0.09    0.09</time>
   <time name="total">    1.18    1.19</time>
   <energy>
    <i name="e_fr_energy">   -176.39189910 </i>
    <i name="e_wo_entrp">   -176.32562412 </i>
    <i name="e_0_energy">   -176.36980744 </i>
   </energy>
  </scstep>
  <scstep>
   <time name="diag">    0.31    0.31</time>
   <time name="diis">    0.71    0.72</time>
   <time name="orth">    0.09    0.09</time>
   <time name="total">    1.18    1.19</time>
   <energy>
    <i name="e_fr_energy">   -176.39235667 </i>
    <i name="e_wo_entrp">   -176.32604305 </i>
    <i name="e_0_energy">   -176.37025213 </i>
   </energy>
  </scstep>
  <scstep>
   <time name="diag">    0.31    0.31</time>
   <time name="diis">    0.64    0.64</time>
   <time name="orth">    0.09    0.09</time>
   <time name="total">    1.11    1.12</time>
   <energy>
    <i name="e_fr_energy">   -176.39285728 </i>
    <i name="e_wo_entrp">   -176.32653414 </i>
    <i name="e_0_energy">   -176.37074957 </i>
   </energy>
  </scstep>
  <scstep>
   <time name="diag">    0.31    0.31</time>
   <time name="diis">    0.57    0.58</time>
   <time name="orth">    0.09    0.09</time>
   <time name="total">    1.04    1.04</time>
   <energy>
    <i name="e_fr_energy">   -176.39318335 </i>
    <i name="e_wo_entrp">   -176.32687258 </i>
    <i name="e_0_energy">   -176.37107976 </i>
   </energy>
  </scstep>
  <scstep>
   <time name="diag">    0.31    0.31</time>
   <time name="diis">    0.47    0.47</time>
   <time name="orth">    0.09    0.09</time>
   <time name="total">    0.93    0.94</time>
   <energy>
    <i name="e_fr_energy">   -176.39341140 </i>
    <i name="e_wo_entrp">   -176.32710225 </i>
    <i name="e_0_energy">   -176.37130835 </i>
   </energy>
  </scstep>
  <scstep>
   <time name="diag">    0.31    0.31</time>
   <time name="diis">    0.45    0.46</time>
   <time name="orth">    0.09    0.09</time>
   <time name="total">    0.92    0.93</time>
   <energy>
    <i name="e_fr_energy">   -176.39362311 </i>
    <i name="e_wo_entrp">   -176.32731996 </i>
    <i name="e_0_energy">   -176.37152206 </i>
   </energy>
  </scstep>
  <scstep>
   <time name="diag">    0.31    0.31</time>
   <time name="diis">    0.47    0.47</time>
   <time name="orth">    0.09    0.09</time>
   <time name="total">    0.93    0.94</time>
   <energy>
    <i name="e_fr_energy">   -176.39386182 </i>
    <i name="e_wo_entrp">   -176.32755549 </i>
    <i name="e_0_energy">   -176.37175971 </i>
   </energy>
  </scstep>
  <scstep>
   <time name="diag">    0.31    0.31</time>
   <time name="diis">    0.45    0.45</time>
   <time name="orth">    0.09    0.09</time>
   <time name="total">    0.92    0.93</time>
   <energy>
    <i name="e_fr_energy">   -176.39390219 </i>
    <i name="e_wo_entrp">   -176.32759453 </i>
    <i name="e_0_energy">   -176.37179964 </i>
   </energy>
  </scstep>
  <scstep>
   <time name="diag">    0.31    0.31</time>
   <time name="diis">    0.46    0.46</time>
   <time name="orth">    0.09    0.09</time>
   <time name="total">    0.92    0.93</time>
   <energy>
    <i name="e_fr_energy">   -176.39394851 </i>
    <i name="e_wo_entrp">   -176.32764227 </i>
    <i name="e_0_energy">   -176.37184643 </i>
   </energy>
  </scstep>
  <scstep>
   <time name="diag">    0.31    0.31</time>
   <time name="diis">    0.44    0.45</time>
   <time name="orth">    0.09    0.09</time>
   <time name="total">    0.91    0.92</time>
   <energy>
    <i name="e_fr_energy">   -176.39396659 </i>
    <i name="e_wo_entrp">   -176.32766115 </i>
    <i name="e_0_energy">   -176.37186478 </i>
   </energy>
  </scstep>
  <scstep>
   <time name="diag">    0.31    0.31</time>
   <time name="diis">    0.39    0.40</time>
   <time name="orth">    0.09    0.09</time>
   <time name="total">    0.81    0.81</time>
   <energy>
    <i name="alphaZ">   1044.42981019 </i>
    <i name="ewald"> 153167.80438941 </i>
    <i name="hartreedc">-216627.88686935 </i>
    <i name="XCdc">   2161.85849660 </i>
    <i name="pawpsdc">  63272.16677792 </i>
    <i name="pawaedc"> -68447.12182084 </i>
    <i name="eentropy">     -0.06630484 </i>
    <i name="bandstr">  -1803.96032955 </i>
    <i name="atom">  67056.38188117 </i>
    <i name="e_fr_energy">   -176.39396929 </i>
    <i name="e_wo_entrp">   -176.32766445 </i>
    <i name="e_0_energy">   -176.37186768 </i>
   </energy>
  </scstep>
  <structure>
   <crystal>
    <varray name="basis" >
     <v>      10.11850195       0.00000000       0.00000000 </v>
     <v>      -5.05925097       8.76287974       0.00000000 </v>
     <v>       0.00000000       0.00000000      18.58887505 </v>
    </varray>
    <i name="volume">   1648.22379336 </i>
    <varray name="rec_basis" >
     <v>       0.09882886       0.05705887      -0.00000000 </v>
     <v>       0.00000000       0.11411774      -0.00000000 </v>
     <v>       0.00000000       0.00000000       0.05379562 </v>
    </varray>
   </crystal>
   <varray name="positions" >
    <v>       0.99904304       0.00090621       0.61211041 </v>
    <v>       0.00015586       0.25029098       0.61424211 </v>
    <v>       0.99785550       0.49818244       0.61332683 </v>
    <v>       0.99577386       0.74883338       0.61118244 </v>
    <v>       0.24461825       0.00349658       0.61785775 </v>
    <v>       0.25038876       0.25251671       0.61203141 </v>
    <v>       0.25028306       0.49816929       0.61333556 </v>
    <v>       0.24714372       0.74430019       0.60079812 </v>
    <v>       0.50889131       0.00349596       0.61783904 </v>
    <v>       0.50343632       0.25687246       0.61055064 </v>
    <v>       0.50086962       0.50136773       0.61349391 </v>
    <v>       0.50303909       0.74882950       0.61118529 </v>
    <v>       0.75186545       0.00092911       0.61210956 </v>
    <v>       0.75212443       0.25252145       0.61203018 </v>
    <v>       0.75047971       0.50135286       0.61349339 </v>
    <v>       0.75038618       0.75071074       0.61329459 </v>
    <v>       0.08333834       0.16669679       0.38889480 </v>
    <v>       0.08329087       0.41658144       0.38881589 </v>
    <v>       0.08324173       0.66661886       0.38874480 </v>
    <v>       0.08328270       0.91671784       0.38880154 </v>
    <v>       0.33333537       0.16668690       0.38887502 </v>
    <v>       0.33334319       0.41662617       0.38884724 </v>
    <v>       0.33337781       0.66661929       0.38874475 </v>
    <v>       0.33337641       0.91675291       0.38874120 </v>
    <v>       0.58335169       0.16668593       0.38887505 </v>
    <v>       0.58336653       0.41667220       0.38889273 </v>
    <v>       0.58337471       0.66665318       0.38883971 </v>
    <v>       0.58343639       0.91671784       0.38880153 </v>
    <v>       0.83335869       0.16669603       0.38889492 </v>
    <v>       0.83328481       0.41662614       0.38884732 </v>
    <v>       0.83327927       0.66665341       0.38883985 </v>
    <v>       0.83336484       0.91667708       0.38887599 </v>
    <v>       0.16663061       0.08335862       0.49997106 </v>
    <v>       0.16663104       0.33320961       0.49993484 </v>
    <v>       0.16617957       0.58235651       0.49922243 </v>
    <v>       0.16616722       0.83380641       0.49920896 </v>
    <v>       0.41681461       0.08362931       0.49981018 </v>
    <v>       0.41664571       0.33340356       0.50001824 </v>
    <v>       0.41682090       0.58318171       0.49982316 </v>
    <v>       0.41763983       0.83380691       0.49920845 </v>
    <v>       0.66672856       0.08335851       0.49997100 </v>
    <v>       0.66675827       0.33340352       0.50001867 </v>
    <v>       0.66664242       0.58329966       0.49995707 </v>
    <v>       0.66688149       0.83338414       0.49988368 </v>
    <v>       0.91672152       0.08343114       0.50002006 </v>
    <v>       0.91657885       0.33320917       0.49993500 </v>
    <v>       0.91636061       0.58318032       0.49982338 </v>
    <v>       0.91650190       0.83338303       0.49988432 </v>
    <v>       0.35847512       0.96690304       0.68982277 </v>
    <v>       0.39203977       0.03392248       0.73480591 </v>
    <v>       0.24171629       0.73359511       0.72654997 </v>
   </varray>
  </structure>
  <varray name="forces" >
   <v>      -0.03757256      -0.00275257      -0.00140865 </v>
   <v>      -0.00093911      -0.01479124      -0.06830044 </v>
   <v>       0.08000472       0.12324509       0.09529952 </v>
   <v>       0.12171950       0.03171457       0.06109027 </v>
   <v>       0.21194166      -0.00014312       0.17947797 </v>
   <v>      -0.04381223       0.00490237       0.02782009 </v>
   <v>      -0.07845035       0.12384451       0.09446322 </v>
   <v>      -0.00005225       0.05696829       2.22234187 </v>
   <v>      -0.21273212      -0.00084543       0.18007779 </v>
   <v>      -0.00036183      -0.19562032       0.20019821 </v>
   <v>       0.04172650       0.00850941      -0.02433802 </v>
   <v>      -0.11936014       0.03180559       0.06053590 </v>
   <v>       0.03896564      -0.00429197      -0.00159953 </v>
   <v>       0.04448042       0.00465022       0.02793491 </v>
   <v>      -0.04199777       0.00889678      -0.02421554 </v>
   <v>      -0.00290025      -0.01293899       0.02401195 </v>
   <v>      -0.02717003      -0.00070215      -0.16317904 </v>
   <v>       0.00013695      -0.05651565      -0.14712758 </v>
   <v>      -0.01696624      -0.01275845      -0.22359428 </v>
   <v>      -0.00552570       0.03023063      -0.20481641 </v>
   <v>      -0.01466053       0.00209173      -0.15144016 </v>
   <v>       0.00625372       0.01652680      -0.15998017 </v>
   <v>       0.01705137      -0.01279301      -0.22362553 </v>
   <v>       0.00008922      -0.01475276      -0.22158765 </v>
   <v>       0.01497793       0.00160371      -0.15146351 </v>
   <v>      -0.00184134       0.02254245      -0.20043769 </v>
   <v>       0.03773272      -0.03668921      -0.14731814 </v>
   <v>       0.00653359       0.03020757      -0.20478043 </v>
   <v>       0.02753768      -0.00108942      -0.16310031 </v>
   <v>      -0.00502755       0.01648834      -0.16007811 </v>
   <v>      -0.03713430      -0.03667861      -0.14725723 </v>
   <v>      -0.00165778       0.00761264      -0.12043554 </v>
   <v>       0.15206360      -0.09065632       0.25995986 </v>
   <v>      -0.05899381       0.02565408       0.14268483 </v>
   <v>       0.00003247      -0.17906796      -0.20335099 </v>
   <v>      -0.14205647       0.13753923      -0.04533091 </v>
   <v>      -0.00020172      -0.08380841       0.24610288 </v>
   <v>      -0.01269920      -0.01398506       0.08063697 </v>
   <v>      -0.04064239      -0.01586570       0.14402136 </v>
   <v>       0.14182128       0.13719191      -0.04538977 </v>
   <v>      -0.15175435      -0.09059588       0.25928530 </v>
   <v>       0.01258338      -0.01402600       0.08087814 </v>
   <v>       0.00035245       0.03907833       0.19244075 </v>
   <v>       0.01887073       0.02504364       0.13190960 </v>
   <v>      -0.00046871       0.03976329       0.08748855 </v>
   <v>       0.05901069       0.02542959       0.14268191 </v>
   <v>       0.04000856      -0.01575188       0.14351674 </v>
   <v>      -0.01871191       0.02484430       0.13144503 </v>
   <v>      -0.00055137      -0.32984573      -1.17387690 </v>
   <v>      -0.00028097      -0.19245273       0.49793999 </v>
   <v>       0.00062820       0.45303352      -1.33621110 </v>
  </varray>
  <varray name="stress" >
   <v>       2.04197727      -0.01006974       0.00131430 </v>
   <v>      -0.01006947       1.57236349       0.32455234 </v>
   <v>       0.00131427       0.32455233       2.98130400 </v>
  </varray>
  <energy>
   <i name="e_fr_energy">   -176.39396929 </i>
   <i name="e_wo_entrp">   -176.32766445 </i>
   <i name="e_0_energy">   -176.37186768 </i>
  </energy>
  <time name="totalsc">   56.12   56.78</time>
  <eigenvalues>
   <array>
    <dimension dim="1">band</dimension>
    <dimension dim="2">kpoint</dimension>
    <dimension dim="3">spin</dimension>
    <field>eigene</field>
    <field>occ</field>
    <set>
     <set comment="spin 1">
      <set comment="kpoint 1">
       <r>  -15.5256    1.0000 </r>
       <r>   -9.2333    1.0000 </r>
       <r>   -7.5608    1.0000 </r>
       <r>   -7.3742    1.0000 </r>
       <r>   -7.3559    1.0000 </r>
       <r>   -7.3510    1.0000 </r>
       <r>   -7.3501    1.0000 </r>
       <r>   -7.3414    1.0000 </r>
       <r>   -7.2758    1.0000 </r>
       <r>   -6.7522    1.0000 </r>
       <r>   -5.7525    1.0000 </r>
       <r>   -5.7226    1.0000 </r>
       <r>   -5.7087    1.0000 </r>
       <r>   -5.6616    1.0000 </r>
       <r>   -5.6602    1.0000 </r>
       <r>   -5.6531    1.0000 </r>
       <r>   -5.3776    1.0000 </r>
       <r>   -5.3140    1.0000 </r>
       <r>   -5.3078    1.0000 </r>
       <r>   -5.2891    1.0000 </r>
       <r>   -5.1259    1.0000 </r>
       <r>   -5.1077    1.0000 </r>
       <r>   -5.0671    1.0000 </r>
       <r>   -5.0142    1.0000 </r>
       <r>   -4.9943    1.0000 </r>
       <r>   -4.9791    1.0000 </r>
       <r>   -4.9756    1.0000 </r>
       <r>   -4.9741    1.0000 </r>
       <r>   -4.9498    1.0000 </r>
       <r>   -4.8203    1.0000 </r>
       <r>   -4.7682    1.0000 </r>
       <r>   -4.7356    1.0000 </r>
       <r>   -4.7169    1.0000 </r>
       <r>   -4.7119    1.0000 </r>
       <r>   -4.7021    1.0000 </r>
       <r>   -4.7009    1.0000 </r>
       <r>   -4.6947    1.0000 </r>
       <r>   -4.6921    1.0000 </r>
       <r>   -4.6891    1.0000 </r>
       <r>   -4.6863    1.0000 </r>
       <r>   -4.6803    1.0000 </r>
       <r>   -4.6798    1.0000 </r>
       <r>   -4.6751    1.0000 </r>
       <r>   -4.6656    1.0000 </r>
       <r>   -4.6350    1.0000 </r>
       <r>   -4.6285    1.0000 </r>
       <r>   -4.5440    1.0000 </r>
       <r>   -4.4214    1.0000 </r>
       <r>   -4.3946    1.0000 </r>
       <r>   -4.3921    1.0000 </r>
       <r>   -4.3878    1.0000 </r>
       <r>   -4.3777    1.0000 </r>
       <r>   -4.3622    1.0000 </r>
       <r>   -4.3037    1.0000 </r>
       <r>   -4.2549    1.0000 </r>
       <r>   -4.1922    1.0000 </r>
       <r>   -4.1763    1.0000 </r>
       <r>   -4.1716    1.0000 </r>
       <r>   -4.1578    1.0000 </r>
       <r>   -4.1365    1.0000 </r>
       <r>   -4.1231    1.0000 </r>
       <r>   -4.0736    1.0000 </r>
       <r>   -4.0677    1.0000 </r>
       <r>   -4.0610    1.0000 </r>
       <r>   -4.0513    1.0000 </r>
       <r>   -4.0501    1.0000 </r>
       <r>   -4.0333    1.0000 </r>
       <r>   -3.9428    1.0000 </r>
       <r>   -3.9423    1.0000 </r>
       <r>   -3.9214    1.0000 </r>
       <r>   -3.9203    1.0000 </r>
       <r>   -3.9123    1.0000 </r>
       <r>   -3.9044    1.0000 </r>
       <r>   -3.9001    1.0000 </r>
       <r>   -3.8938    1.0000 </r>
       <r>   -3.8870    1.0000 </r>
       <r>   -3.8609    1.0000 </r>
       <r>   -3.8550    1.0000 </r>
       <r>   -3.8536    1.0000 </r>
       <r>   -3.8478    1.0000 </r>
       <r>   -3.8244    1.0000 </r>
       <r>   -3.8206    1.0000 </r>
       <r>   -3.7852    1.0000 </r>
       <r>   -3.7695    1.0000 </r>
       <r>   -3.7572    1.0000 </r>
       <r>   -3.7482    1.0000 </r>
       <r>   -3.7313    1.0000 </r>
       <r>   -3.7132    1.0000 </r>
       <r>   -3.6134    1.0000 </r>
       <r>   -3.6010    1.0000 </r>
       <r>   -3.5901    1.0000 </r>
       <r>   -3.5819    1.0000 </r>
       <r>   -3.5565    1.0000 </r>
       <r>   -3.5471    1.0000 </r>
       <r>   -3.5411    1.0000 </r>
       <r>   -3.5340    1.0000 </r>
       <r>   -3.5316    1.0000 </r>
       <r>   -3.5053    1.0000 </r>
       <r>   -3.5044    1.0000 </r>
       <r>   -3.4904    1.0000 </r>
       <r>   -3.4448    1.0000 </r>
       <r>   -3.4234    1.0000 </r>
       <r>   -3.4022    1.0000 </r>
       <r>   -3.3934    1.0000 </r>
       <r>   -3.3731    1.0000 </r>
       <r>   -3.3618    1.0000 </r>
       <r>   -3.3607    1.0000 </r>
       <r>   -3.3463    1.0000 </r>
       <r>   -3.3463    1.0000 </r>
       <r>   -3.3414    1.0000 </r>
       <r>   -3.3411    1.0000 </r>
       <r>   -3.3325    1.0000 </r>
       <r>   -3.3118    1.0000 </r>
       <r>   -3.3095    1.0000 </r>
       <r>   -3.3048    1.0000 </r>
       <r>   -3.2969    1.0000 </r>
       <r>   -3.2875    1.0000 </r>
       <r>   -3.2709    1.0000 </r>
       <r>   -3.2648    1.0000 </r>
       <r>   -3.2594    1.0000 </r>
       <r>   -3.2501    1.0000 </r>
       <r>   -3.2476    1.0000 </r>
       <r>   -3.2320    1.0000 </r>
       <r>   -3.2308    1.0000 </r>
       <r>   -3.2208    1.0000 </r>
       <r>   -3.2170    1.0000 </r>
       <r>   -3.2006    1.0000 </r>
       <r>   -3.1973    1.0000 </r>
       <r>   -3.1964    1.0000 </r>
       <r>   -3.1837    1.0000 </r>
       <r>   -3.1757    1.0000 </r>
       <r>   -3.1664    1.0000 </r>
       <r>   -3.1654    1.0000 </r>
       <r>   -3.1611    1.0000 </r>
       <r>   -3.1581    1.0000 </r>
       <r>   -3.1578    1.0000 </r>
       <r>   -3.1473    1.0000 </r>
       <r>   -3.1452    1.0000 </r>
       <r>   -3.1400    1.0000 </r>
       <r>   -3.1327    1.0000 </r>
       <r>   -3.1170    1.0000 </r>
       <r>   -3.1145    1.0000 </r>
       <r>   -3.1122    1.0000 </r>
       <r>   -3.1037    1.0000 </r>
       <r>   -3.1015    1.0000 </r>
       <r>   -3.0933    1.0000 </r>
       <r>   -3.0918    1.0000 </r>
       <r>   -3.0874    1.0000 </r>
       <r>   -3.0832    1.0000 </r>
       <r>   -3.0815    1.0000 </r>
       <r>   -3.0727    1.0000 </r>
       <r>   -3.0642    1.0000 </r>
       <r>   -3.0572    1.0000 </r>
       <r>   -3.0482    1.0000 </r>
       <r>   -3.0209    1.0000 </r>
       <r>   -3.0109    1.0000 </r>
       <r>   -2.9457    1.0000 </r>
       <r>   -2.8989    1.0000 </r>
       <r>   -2.8738    1.0000 </r>
       <r>   -2.8730    1.0000 </r>
       <r>   -2.8671    1.0000 </r>
       <r>   -2.8647    1.0000 </r>
       <r>   -2.8613    1.0000 </r>
       <r>   -2.8323    1.0000 </r>
       <r>   -2.8020    1.0000 </r>
       <r>   -2.7882    1.0000 </r>
       <r>   -2.7531    1.0000 </r>
       <r>   -2.7484    1.0000 </r>
       <r>   -2.7370    1.0000 </r>
       <r>   -2.7037    1.0000 </r>
       <r>   -2.7011    1.0000 </r>
       <r>   -2.6854    1.0000 </r>
       <r>   -2.6838    1.0000 </r>
       <r>   -2.6695    1.0000 </r>
       <r>   -2.6615    1.0000 </r>
       <r>   -2.6366    1.0000 </r>
       <r>   -2.6341    1.0000 </r>
       <r>   -2.6219    1.0000 </r>
       <r>   -2.6049    1.0000 </r>
       <r>   -2.6032    1.0000 </r>
       <r>   -2.5973    1.0000 </r>
       <r>   -2.5926    1.0000 </r>
       <r>   -2.5911    1.0000 </r>
       <r>   -2.5869    1.0000 </r>
       <r>   -2.5797    1.0000 </r>
       <r>   -2.5686    1.0000 </r>
       <r>   -2.5554    1.0000 </r>
       <r>   -2.5369    1.0000 </r>
       <r>   -2.5308    1.0000 </r>
       <r>   -2.5287    1.0000 </r>
       <r>   -2.5241    1.0000 </r>
       <r>   -2.5186    1.0000 </r>
       <r>   -2.5051    1.0000 </r>
       <r>   -2.4980    1.0000 </r>
       <r>   -2.4957    1.0000 </r>
       <r>   -2.4841    1.0000 </r>
       <r>   -2.4802    1.0000 </r>
       <r>   -2.4760    1.0000 </r>
       <r>   -2.4664    1.0000 </r>
       <r>   -2.4439    1.0000 </r>
       <r>   -2.4293    1.0000 </r>
       <r>   -2.4170    1.0000 </r>
       <r>   -2.4036    1.0000 </r>
       <r>   -2.3940    1.0000 </r>
       <r>   -2.3796    1.0000 </r>
       <r>   -2.3769    1.0000 </r>
       <r>   -2.3656    1.0000 </r>
       <r>   -2.3465    1.0000 </r>
       <r>   -2.3323    1.0000 </r>
       <r>   -2.3229    1.0000 </r>
       <r>   -2.3154    1.0000 </r>
       <r>   -2.3085    1.0000 </r>
       <r>   -2.2994    1.0000 </r>
       <r>   -2.2900    1.0000 </r>
       <r>   -2.2706    1.0000 </r>
       <r>   -2.2562    1.0000 </r>
       <r>   -2.2544    1.0000 </r>
       <r>   -2.1646    1.0000 </r>
       <r>   -2.1612    1.0000 </r>
       <r>   -2.1543    1.0000 </r>
       <r>   -2.1532    1.0000 </r>
       <r>   -2.1444    1.0000 </r>
       <r>   -2.1402    1.0000 </r>
       <r>   -2.1190    1.0000 </r>
       <r>   -2.1151    1.0000 </r>
       <r>   -2.1031    1.0000 </r>
       <r>   -2.0939    1.0000 </r>
       <r>   -2.0840    1.0000 </r>
       <r>   -2.0836    1.0000 </r>
       <r>   -2.0752    1.0000 </r>
       <r>   -2.0744    1.0000 </r>
       <r>   -2.0704    1.0000 </r>
       <r>   -2.0694    1.0000 </r>
       <r>   -2.0680    1.0000 </r>
       <r>   -2.0655    1.0000 </r>
       <r>   -2.0598    1.0000 </r>
       <r>   -2.0593    1.0000 </r>
       <r>   -2.0591    1.0000 </r>
       <r>   -2.0516    1.0000 </r>
       <r>   -2.0491    1.0000 </r>
       <r>   -2.0467    1.0000 </r>
       <r>   -2.0466    1.0000 </r>
       <r>   -2.0395    1.0000 </r>
       <r>   -2.0365    1.0000 </r>
       <r>   -1.9882    1.0000 </r>
       <r>   -1.9808    1.0000 </r>
       <r>   -1.9786    1.0000 </r>
       <r>   -1.9762    1.0000 </r>
       <r>   -1.9689    1.0000 </r>
       <r>   -1.9666    1.0000 </r>
       <r>   -1.8116    1.0000 </r>
       <r>   -1.8104    1.0000 </r>
       <r>   -1.8089    1.0000 </r>
       <r>   -1.7945    1.0000 </r>
       <r>   -1.7867    1.0000 </r>
       <r>   -1.7773    1.0000 </r>
       <r>   -1.6807    1.0000 </r>
       <r>   -1.4095    1.0000 </r>
       <r>   -1.3092    1.0000 </r>
       <r>   -0.7316    1.0002 </r>
       <r>   -0.4576    0.6350 </r>
       <r>   -0.4248    0.3611 </r>
       <r>   -0.4190    0.3155 </r>
       <r>   -0.4152    0.2863 </r>
       <r>   -0.4030    0.1996 </r>
       <r>   -0.4027    0.1976 </r>
       <r>   -0.3967    0.1605 </r>
       <r>   -0.3932    0.1396 </r>
       <r>   -0.3186   -0.0355 </r>
       <r>   -0.2121   -0.0028 </r>
       <r>   -0.1470   -0.0001 </r>
       <r>   -0.1465   -0.0001 </r>
       <r>   -0.0362   -0.0000 </r>
       <r>    0.1378   -0.0000 </r>
       <r>    0.1818   -0.0000 </r>
       <r>    0.5758   -0.0000 </r>
       <r>    0.7407   -0.0000 </r>
       <r>    0.7481   -0.0000 </r>
       <r>    0.7608   -0.0000 </r>
       <r>    0.7626   -0.0000 </r>
       <r>    0.7661   -0.0000 </r>
       <r>    0.9357   -0.0000 </r>
       <r>    0.9648   -0.0000 </r>
       <r>    1.0068   -0.0000 </r>
       <r>    1.1048   -0.0000 </r>
       <r>    1.1934   -0.0000 </r>
       <r>    1.3582   -0.0000 </r>
       <r>    1.8318   -0.0000 </r>
       <r>    2.4397    0.0000 </r>
       <r>    2.4413    0.0000 </r>
       <r>    2.4632    0.0000 </r>
       <r>    2.6208    0.0000 </r>
       <r>    2.6560    0.0000 </r>
       <r>    2.9925    0.0000 </r>
       <r>    3.1913    0.0000 </r>
       <r>    3.2350    0.0000 </r>
       <r>    3.2997    0.0000 </r>
       <r>    3.4288    0.0000 </r>
       <r>    3.5087    0.0000 </r>
       <r>    3.8181    0.0000 </r>
       <r>    3.9453    0.0000 </r>
       <r>    4.2234    0.0000 </r>
       <r>    4.3054    0.0000 </r>
       <r>    4.3120    0.0000 </r>
       <r>    4.5845    0.0000 </r>
       <r>    5.0382    0.0000 </r>
       <r>    5.3093    0.0000 </r>
       <r>    5.4067    0.0000 </r>
       <r>    5.4301    0.0000 </r>
       <r>    5.4878    0.0000 </r>
       <r>    5.5110    0.0000 </r>
       <r>    5.5142    0.0000 </r>
       <r>    5.6037    0.0000 </r>
       <r>    5.6235    0.0000 </r>
       <r>    5.8254    0.0000 </r>
       <r>    6.1593    0.0000 </r>
       <r>    6.1690    0.0000 </r>
       <r>    6.2167    0.0000 </r>
       <r>    6.2507    0.0000 </r>
       <r>    6.2924    0.0000 </r>
       <r>    6.3170    0.0000 </r>
       <r>    6.3494    0.0000 </r>
       <r>    6.3730    0.0000 </r>
       <r>    6.4073    0.0000 </r>
      </set>
      <set comment="kpoint 2">
       <r>  -15.5256    1.0000 </r>
       <r>   -9.0102    1.0000 </r>
       <r>   -8.3614    1.0000 </r>
       <r>   -7.7730    1.0000 </r>
       <r>   -7.7338    1.0000 </r>
       <r>   -7.2857    1.0000 </r>
       <r>   -6.8381    1.0000 </r>
       <r>   -6.6521    1.0000 </r>
       <r>   -6.6007    1.0000 </r>
       <r>   -6.3298    1.0000 </r>
       <r>   -6.2264    1.0000 </r>
       <r>   -5.9467    1.0000 </r>
       <r>   -5.8024    1.0000 </r>
       <r>   -5.7615    1.0000 </r>
       <r>   -5.7240    1.0000 </r>
       <r>   -5.5353    1.0000 </r>
       <r>   -5.4956    1.0000 </r>
       <r>   -5.2972    1.0000 </r>
       <r>   -5.2591    1.0000 </r>
       <r>   -5.2464    1.0000 </r>
       <r>   -5.2412    1.0000 </r>
       <r>   -5.2004    1.0000 </r>
       <r>   -5.1134    1.0000 </r>
       <r>   -5.1003    1.0000 </r>
       <r>   -5.0922    1.0000 </r>
       <r>   -5.0726    1.0000 </r>
       <r>   -5.0394    1.0000 </r>
       <r>   -4.9987    1.0000 </r>
       <r>   -4.9310    1.0000 </r>
       <r>   -4.9092    1.0000 </r>
       <r>   -4.8558    1.0000 </r>
       <r>   -4.8174    1.0000 </r>
       <r>   -4.8160    1.0000 </r>
       <r>   -4.7535    1.0000 </r>
       <r>   -4.7090    1.0000 </r>
       <r>   -4.6798    1.0000 </r>
       <r>   -4.6624    1.0000 </r>
       <r>   -4.6468    1.0000 </r>
       <r>   -4.6380    1.0000 </r>
       <r>   -4.6328    1.0000 </r>
       <r>   -4.6108    1.0000 </r>
       <r>   -4.5804    1.0000 </r>
       <r>   -4.5690    1.0000 </r>
       <r>   -4.5326    1.0000 </r>
       <r>   -4.5198    1.0000 </r>
       <r>   -4.5109    1.0000 </r>
       <r>   -4.5013    1.0000 </r>
       <r>   -4.4988    1.0000 </r>
       <r>   -4.4671    1.0000 </r>
       <r>   -4.4129    1.0000 </r>
       <r>   -4.4096    1.0000 </r>
       <r>   -4.3836    1.0000 </r>
       <r>   -4.3686    1.0000 </r>
       <r>   -4.3409    1.0000 </r>
       <r>   -4.2846    1.0000 </r>
       <r>   -4.2521    1.0000 </r>
       <r>   -4.2244    1.0000 </r>
       <r>   -4.1982    1.0000 </r>
       <r>   -4.1889    1.0000 </r>
       <r>   -4.1663    1.0000 </r>
       <r>   -4.1314    1.0000 </r>
       <r>   -4.1131    1.0000 </r>
       <r>   -4.0990    1.0000 </r>
       <r>   -4.0592    1.0000 </r>
       <r>   -4.0121    1.0000 </r>
       <r>   -3.9912    1.0000 </r>
       <r>   -3.9845    1.0000 </r>
       <r>   -3.9708    1.0000 </r>
       <r>   -3.9496    1.0000 </r>
       <r>   -3.9378    1.0000 </r>
       <r>   -3.9353    1.0000 </r>
       <r>   -3.9333    1.0000 </r>
       <r>   -3.9256    1.0000 </r>
       <r>   -3.9196    1.0000 </r>
       <r>   -3.9109    1.0000 </r>
       <r>   -3.8868    1.0000 </r>
       <r>   -3.8747    1.0000 </r>
       <r>   -3.8661    1.0000 </r>
       <r>   -3.8456    1.0000 </r>
       <r>   -3.8230    1.0000 </r>
       <r>   -3.7997    1.0000 </r>
       <r>   -3.7522    1.0000 </r>
       <r>   -3.7407    1.0000 </r>
       <r>   -3.7118    1.0000 </r>
       <r>   -3.6987    1.0000 </r>
       <r>   -3.6730    1.0000 </r>
       <r>   -3.6674    1.0000 </r>
       <r>   -3.6551    1.0000 </r>
       <r>   -3.6391    1.0000 </r>
       <r>   -3.6169    1.0000 </r>
       <r>   -3.5998    1.0000 </r>
       <r>   -3.5837    1.0000 </r>
       <r>   -3.5723    1.0000 </r>
       <r>   -3.5621    1.0000 </r>
       <r>   -3.5589    1.0000 </r>
       <r>   -3.5524    1.0000 </r>
       <r>   -3.5441    1.0000 </r>
       <r>   -3.5281    1.0000 </r>
       <r>   -3.5193    1.0000 </r>
       <r>   -3.4913    1.0000 </r>
       <r>   -3.4641    1.0000 </r>
       <r>   -3.4467    1.0000 </r>
       <r>   -3.4351    1.0000 </r>
       <r>   -3.4254    1.0000 </r>
       <r>   -3.4121    1.0000 </r>
       <r>   -3.4090    1.0000 </r>
       <r>   -3.3981    1.0000 </r>
       <r>   -3.3808    1.0000 </r>
       <r>   -3.3741    1.0000 </r>
       <r>   -3.3558    1.0000 </r>
       <r>   -3.3516    1.0000 </r>
       <r>   -3.3451    1.0000 </r>
       <r>   -3.3321    1.0000 </r>
       <r>   -3.3281    1.0000 </r>
       <r>   -3.3206    1.0000 </r>
       <r>   -3.3137    1.0000 </r>
       <r>   -3.3129    1.0000 </r>
       <r>   -3.3005    1.0000 </r>
       <r>   -3.2956    1.0000 </r>
       <r>   -3.2722    1.0000 </r>
       <r>   -3.2582    1.0000 </r>
       <r>   -3.2508    1.0000 </r>
       <r>   -3.2407    1.0000 </r>
       <r>   -3.2366    1.0000 </r>
       <r>   -3.2250    1.0000 </r>
       <r>   -3.2226    1.0000 </r>
       <r>   -3.2106    1.0000 </r>
       <r>   -3.2088    1.0000 </r>
       <r>   -3.2054    1.0000 </r>
       <r>   -3.1980    1.0000 </r>
       <r>   -3.1901    1.0000 </r>
       <r>   -3.1749    1.0000 </r>
       <r>   -3.1569    1.0000 </r>
       <r>   -3.1543    1.0000 </r>
       <r>   -3.1431    1.0000 </r>
       <r>   -3.1363    1.0000 </r>
       <r>   -3.1220    1.0000 </r>
       <r>   -3.1149    1.0000 </r>
       <r>   -3.0987    1.0000 </r>
       <r>   -3.0895    1.0000 </r>
       <r>   -3.0880    1.0000 </r>
       <r>   -3.0780    1.0000 </r>
       <r>   -3.0678    1.0000 </r>
       <r>   -3.0614    1.0000 </r>
       <r>   -3.0507    1.0000 </r>
       <r>   -3.0416    1.0000 </r>
       <r>   -3.0314    1.0000 </r>
       <r>   -3.0189    1.0000 </r>
       <r>   -3.0045    1.0000 </r>
       <r>   -2.9967    1.0000 </r>
       <r>   -2.9836    1.0000 </r>
       <r>   -2.9763    1.0000 </r>
       <r>   -2.9641    1.0000 </r>
       <r>   -2.9478    1.0000 </r>
       <r>   -2.9382    1.0000 </r>
       <r>   -2.9205    1.0000 </r>
       <r>   -2.9027    1.0000 </r>
       <r>   -2.8613    1.0000 </r>
       <r>   -2.8517    1.0000 </r>
       <r>   -2.8355    1.0000 </r>
       <r>   -2.8090    1.0000 </r>
       <r>   -2.7960    1.0000 </r>
       <r>   -2.7802    1.0000 </r>
       <r>   -2.7565    1.0000 </r>
       <r>   -2.7500    1.0000 </r>
       <r>   -2.7349    1.0000 </r>
       <r>   -2.7250    1.0000 </r>
       <r>   -2.7190    1.0000 </r>
       <r>   -2.7141    1.0000 </r>
       <r>   -2.7019    1.0000 </r>
       <r>   -2.6928    1.0000 </r>
       <r>   -2.6807    1.0000 </r>
       <r>   -2.6674    1.0000 </r>
       <r>   -2.6624    1.0000 </r>
       <r>   -2.6496    1.0000 </r>
       <r>   -2.6402    1.0000 </r>
       <r>   -2.6311    1.0000 </r>
       <r>   -2.6214    1.0000 </r>
       <r>   -2.6146    1.0000 </r>
       <r>   -2.6115    1.0000 </r>
       <r>   -2.6057    1.0000 </r>
       <r>   -2.5975    1.0000 </r>
       <r>   -2.5942    1.0000 </r>
       <r>   -2.5791    1.0000 </r>
       <r>   -2.5722    1.0000 </r>
       <r>   -2.5637    1.0000 </r>
       <r>   -2.5562    1.0000 </r>
       <r>   -2.5456    1.0000 </r>
       <r>   -2.5383    1.0000 </r>
       <r>   -2.5250    1.0000 </r>
       <r>   -2.5114    1.0000 </r>
       <r>   -2.5033    1.0000 </r>
       <r>   -2.4956    1.0000 </r>
       <r>   -2.4702    1.0000 </r>
       <r>   -2.4538    1.0000 </r>
       <r>   -2.4348    1.0000 </r>
       <r>   -2.4251    1.0000 </r>
       <r>   -2.4059    1.0000 </r>
       <r>   -2.4004    1.0000 </r>
       <r>   -2.3980    1.0000 </r>
       <r>   -2.3869    1.0000 </r>
       <r>   -2.3798    1.0000 </r>
       <r>   -2.3617    1.0000 </r>
       <r>   -2.3492    1.0000 </r>
       <r>   -2.3454    1.0000 </r>
       <r>   -2.3227    1.0000 </r>
       <r>   -2.3096    1.0000 </r>
       <r>   -2.3025    1.0000 </r>
       <r>   -2.2867    1.0000 </r>
       <r>   -2.2777    1.0000 </r>
       <r>   -2.2743    1.0000 </r>
       <r>   -2.2672    1.0000 </r>
       <r>   -2.2571    1.0000 </r>
       <r>   -2.2483    1.0000 </r>
       <r>   -2.2301    1.0000 </r>
       <r>   -2.2166    1.0000 </r>
       <r>   -2.2081    1.0000 </r>
       <r>   -2.2014    1.0000 </r>
       <r>   -2.1978    1.0000 </r>
       <r>   -2.1866    1.0000 </r>
       <r>   -2.1826    1.0000 </r>
       <r>   -2.1749    1.0000 </r>
       <r>   -2.1692    1.0000 </r>
       <r>   -2.1592    1.0000 </r>
       <r>   -2.1522    1.0000 </r>
       <r>   -2.1488    1.0000 </r>
       <r>   -2.1371    1.0000 </r>
       <r>   -2.1308    1.0000 </r>
       <r>   -2.1189    1.0000 </r>
       <r>   -2.1124    1.0000 </r>
       <r>   -2.1055    1.0000 </r>
       <r>   -2.0936    1.0000 </r>
       <r>   -2.0913    1.0000 </r>
       <r>   -2.0888    1.0000 </r>
       <r>   -2.0828    1.0000 </r>
       <r>   -2.0797    1.0000 </r>
       <r>   -2.0728    1.0000 </r>
       <r>   -2.0625    1.0000 </r>
       <r>   -2.0590    1.0000 </r>
       <r>   -2.0526    1.0000 </r>
       <r>   -2.0499    1.0000 </r>
       <r>   -2.0466    1.0000 </r>
       <r>   -2.0397    1.0000 </r>
       <r>   -2.0347    1.0000 </r>
       <r>   -2.0246    1.0000 </r>
       <r>   -2.0213    1.0000 </r>
       <r>   -2.0002    1.0000 </r>
       <r>   -1.9762    1.0000 </r>
       <r>   -1.9692    1.0000 </r>
       <r>   -1.9196    1.0000 </r>
       <r>   -1.9142    1.0000 </r>
       <r>   -1.9024    1.0000 </r>
       <r>   -1.8775    1.0000 </r>
       <r>   -1.8618    1.0000 </r>
       <r>   -1.7662    1.0000 </r>
       <r>   -1.7241    1.0000 </r>
       <r>   -1.6417    1.0000 </r>
       <r>   -1.5489    1.0000 </r>
       <r>   -1.5186    1.0000 </r>
       <r>   -1.4864    1.0000 </r>
       <r>   -1.3741    1.0000 </r>
       <r>   -1.0817    1.0000 </r>
       <r>   -0.8967    1.0000 </r>
       <r>   -0.8108    1.0000 </r>
       <r>   -0.6457    1.0070 </r>
       <r>   -0.5241    0.9965 </r>
       <r>   -0.4409    0.4957 </r>
       <r>   -0.4329    0.4282 </r>
       <r>   -0.4256    0.3682 </r>
       <r>   -0.4158    0.2908 </r>
       <r>   -0.2508   -0.0107 </r>
       <r>   -0.1766   -0.0006 </r>
       <r>   -0.0309   -0.0000 </r>
       <r>    0.3773   -0.0000 </r>
       <r>    0.5772   -0.0000 </r>
       <r>    0.6734   -0.0000 </r>
       <r>    0.7010   -0.0000 </r>
       <r>    0.7814   -0.0000 </r>
       <r>    0.9055   -0.0000 </r>
       <r>    0.9713   -0.0000 </r>
       <r>    1.1531   -0.0000 </r>
       <r>    1.2701   -0.0000 </r>
       <r>    1.3199   -0.0000 </r>
       <r>    1.5698   -0.0000 </r>
       <r>    1.7131   -0.0000 </r>
       <r>    1.7768   -0.0000 </r>
       <r>    1.9431   -0.0000 </r>
       <r>    1.9896   -0.0000 </r>
       <r>    2.0358   -0.0000 </r>
       <r>    2.1953   -0.0000 </r>
       <r>    2.6020    0.0000 </r>
       <r>    2.6647    0.0000 </r>
       <r>    2.8728    0.0000 </r>
       <r>    3.0684    0.0000 </r>
       <r>    3.2036    0.0000 </r>
       <r>    3.5576    0.0000 </r>
       <r>    3.6481    0.0000 </r>
       <r>    3.7047    0.0000 </r>
       <r>    3.8697    0.0000 </r>
       <r>    3.9875    0.0000 </r>
       <r>    4.3036    0.0000 </r>
       <r>    4.4666    0.0000 </r>
       <r>    4.5177    0.0000 </r>
       <r>    4.5796    0.0000 </r>
       <r>    4.6541    0.0000 </r>
       <r>    4.7159    0.0000 </r>
       <r>    4.8491    0.0000 </r>
       <r>    4.9490    0.0000 </r>
       <r>    5.0556    0.0000 </r>
       <r>    5.0733    0.0000 </r>
       <r>    5.1327    0.0000 </r>
       <r>    5.1640    0.0000 </r>
       <r>    5.2190    0.0000 </r>
       <r>    5.3281    0.0000 </r>
       <r>    5.4067    0.0000 </r>
       <r>    5.4223    0.0000 </r>
       <r>    5.5486    0.0000 </r>
       <r>    5.6653    0.0000 </r>
       <r>    5.7935    0.0000 </r>
       <r>    5.8250    0.0000 </r>
       <r>    5.9186    0.0000 </r>
       <r>    6.0607    0.0000 </r>
       <r>    6.1233    0.0000 </r>
       <r>    6.2949    0.0000 </r>
      </set>
      <set comment="kpoint 3">
       <r>  -15.5256    1.0000 </r>
       <r>   -9.0105    1.0000 </r>
       <r>   -8.3626    1.0000 </r>
       <r>   -7.7628    1.0000 </r>
       <r>   -7.7349    1.0000 </r>
       <r>   -7.2974    1.0000 </r>
       <r>   -6.8374    1.0000 </r>
       <r>   -6.6446    1.0000 </r>
       <r>   -6.6144    1.0000 </r>
       <r>   -6.3288    1.0000 </r>
       <r>   -6.2030    1.0000 </r>
       <r>   -5.9388    1.0000 </r>
       <r>   -5.8197    1.0000 </r>
       <r>   -5.7593    1.0000 </r>
       <r>   -5.7378    1.0000 </r>
       <r>   -5.5398    1.0000 </r>
       <r>   -5.4881    1.0000 </r>
       <r>   -5.2883    1.0000 </r>
       <r>   -5.2837    1.0000 </r>
       <r>   -5.2471    1.0000 </r>
       <r>   -5.2446    1.0000 </r>
       <r>   -5.1922    1.0000 </r>
       <r>   -5.1134    1.0000 </r>
       <r>   -5.0939    1.0000 </r>
       <r>   -5.0894    1.0000 </r>
       <r>   -5.0658    1.0000 </r>
       <r>   -5.0273    1.0000 </r>
       <r>   -5.0060    1.0000 </r>
       <r>   -4.9360    1.0000 </r>
       <r>   -4.8969    1.0000 </r>
       <r>   -4.8400    1.0000 </r>
       <r>   -4.8385    1.0000 </r>
       <r>   -4.7900    1.0000 </r>
       <r>   -4.7656    1.0000 </r>
       <r>   -4.7227    1.0000 </r>
       <r>   -4.6787    1.0000 </r>
       <r>   -4.6603    1.0000 </r>
       <r>   -4.6510    1.0000 </r>
       <r>   -4.6480    1.0000 </r>
       <r>   -4.6315    1.0000 </r>
       <r>   -4.6046    1.0000 </r>
       <r>   -4.5928    1.0000 </r>
       <r>   -4.5636    1.0000 </r>
       <r>   -4.5331    1.0000 </r>
       <r>   -4.5137    1.0000 </r>
       <r>   -4.5129    1.0000 </r>
       <r>   -4.5046    1.0000 </r>
       <r>   -4.4933    1.0000 </r>
       <r>   -4.4654    1.0000 </r>
       <r>   -4.4068    1.0000 </r>
       <r>   -4.4025    1.0000 </r>
       <r>   -4.3746    1.0000 </r>
       <r>   -4.3718    1.0000 </r>
       <r>   -4.3363    1.0000 </r>
       <r>   -4.2890    1.0000 </r>
       <r>   -4.2571    1.0000 </r>
       <r>   -4.2119    1.0000 </r>
       <r>   -4.1990    1.0000 </r>
       <r>   -4.1796    1.0000 </r>
       <r>   -4.1708    1.0000 </r>
       <r>   -4.1371    1.0000 </r>
       <r>   -4.1269    1.0000 </r>
       <r>   -4.1092    1.0000 </r>
       <r>   -4.0661    1.0000 </r>
       <r>   -4.0070    1.0000 </r>
       <r>   -4.0003    1.0000 </r>
       <r>   -3.9797    1.0000 </r>
       <r>   -3.9775    1.0000 </r>
       <r>   -3.9545    1.0000 </r>
       <r>   -3.9543    1.0000 </r>
       <r>   -3.9314    1.0000 </r>
       <r>   -3.9296    1.0000 </r>
       <r>   -3.9264    1.0000 </r>
       <r>   -3.9251    1.0000 </r>
       <r>   -3.9103    1.0000 </r>
       <r>   -3.8909    1.0000 </r>
       <r>   -3.8801    1.0000 </r>
       <r>   -3.8545    1.0000 </r>
       <r>   -3.8485    1.0000 </r>
       <r>   -3.8278    1.0000 </r>
       <r>   -3.8096    1.0000 </r>
       <r>   -3.7554    1.0000 </r>
       <r>   -3.7317    1.0000 </r>
       <r>   -3.7025    1.0000 </r>
       <r>   -3.6964    1.0000 </r>
       <r>   -3.6914    1.0000 </r>
       <r>   -3.6580    1.0000 </r>
       <r>   -3.6452    1.0000 </r>
       <r>   -3.6281    1.0000 </r>
       <r>   -3.6079    1.0000 </r>
       <r>   -3.5998    1.0000 </r>
       <r>   -3.5848    1.0000 </r>
       <r>   -3.5807    1.0000 </r>
       <r>   -3.5702    1.0000 </r>
       <r>   -3.5598    1.0000 </r>
       <r>   -3.5483    1.0000 </r>
       <r>   -3.5447    1.0000 </r>
       <r>   -3.5337    1.0000 </r>
       <r>   -3.5111    1.0000 </r>
       <r>   -3.4894    1.0000 </r>
       <r>   -3.4643    1.0000 </r>
       <r>   -3.4451    1.0000 </r>
       <r>   -3.4422    1.0000 </r>
       <r>   -3.4242    1.0000 </r>
       <r>   -3.4178    1.0000 </r>
       <r>   -3.4005    1.0000 </r>
       <r>   -3.3967    1.0000 </r>
       <r>   -3.3808    1.0000 </r>
       <r>   -3.3697    1.0000 </r>
       <r>   -3.3577    1.0000 </r>
       <r>   -3.3498    1.0000 </r>
       <r>   -3.3458    1.0000 </r>
       <r>   -3.3321    1.0000 </r>
       <r>   -3.3258    1.0000 </r>
       <r>   -3.3248    1.0000 </r>
       <r>   -3.3183    1.0000 </r>
       <r>   -3.3093    1.0000 </r>
       <r>   -3.2950    1.0000 </r>
       <r>   -3.2938    1.0000 </r>
       <r>   -3.2786    1.0000 </r>
       <r>   -3.2613    1.0000 </r>
       <r>   -3.2522    1.0000 </r>
       <r>   -3.2369    1.0000 </r>
       <r>   -3.2360    1.0000 </r>
       <r>   -3.2289    1.0000 </r>
       <r>   -3.2196    1.0000 </r>
       <r>   -3.2166    1.0000 </r>
       <r>   -3.2086    1.0000 </r>
       <r>   -3.2038    1.0000 </r>
       <r>   -3.1947    1.0000 </r>
       <r>   -3.1828    1.0000 </r>
       <r>   -3.1784    1.0000 </r>
       <r>   -3.1696    1.0000 </r>
       <r>   -3.1498    1.0000 </r>
       <r>   -3.1467    1.0000 </r>
       <r>   -3.1284    1.0000 </r>
       <r>   -3.1217    1.0000 </r>
       <r>   -3.1149    1.0000 </r>
       <r>   -3.0981    1.0000 </r>
       <r>   -3.0903    1.0000 </r>
       <r>   -3.0902    1.0000 </r>
       <r>   -3.0716    1.0000 </r>
       <r>   -3.0697    1.0000 </r>
       <r>   -3.0527    1.0000 </r>
       <r>   -3.0442    1.0000 </r>
       <r>   -3.0372    1.0000 </r>
       <r>   -3.0355    1.0000 </r>
       <r>   -3.0194    1.0000 </r>
       <r>   -3.0028    1.0000 </r>
       <r>   -2.9997    1.0000 </r>
       <r>   -2.9852    1.0000 </r>
       <r>   -2.9830    1.0000 </r>
       <r>   -2.9587    1.0000 </r>
       <r>   -2.9518    1.0000 </r>
       <r>   -2.9454    1.0000 </r>
       <r>   -2.9252    1.0000 </r>
       <r>   -2.9084    1.0000 </r>
       <r>   -2.8526    1.0000 </r>
       <r>   -2.8456    1.0000 </r>
       <r>   -2.8395    1.0000 </r>
       <r>   -2.8200    1.0000 </r>
       <r>   -2.7888    1.0000 </r>
       <r>   -2.7844    1.0000 </r>
       <r>   -2.7589    1.0000 </r>
       <r>   -2.7570    1.0000 </r>
       <r>   -2.7422    1.0000 </r>
       <r>   -2.7312    1.0000 </r>
       <r>   -2.7291    1.0000 </r>
       <r>   -2.7174    1.0000 </r>
       <r>   -2.7000    1.0000 </r>
       <r>   -2.6881    1.0000 </r>
       <r>   -2.6725    1.0000 </r>
       <r>   -2.6637    1.0000 </r>
       <r>   -2.6597    1.0000 </r>
       <r>   -2.6486    1.0000 </r>
       <r>   -2.6472    1.0000 </r>
       <r>   -2.6360    1.0000 </r>
       <r>   -2.6257    1.0000 </r>
       <r>   -2.6238    1.0000 </r>
       <r>   -2.6096    1.0000 </r>
       <r>   -2.6042    1.0000 </r>
       <r>   -2.6023    1.0000 </r>
       <r>   -2.5846    1.0000 </r>
       <r>   -2.5818    1.0000 </r>
       <r>   -2.5733    1.0000 </r>
       <r>   -2.5728    1.0000 </r>
       <r>   -2.5520    1.0000 </r>
       <r>   -2.5499    1.0000 </r>
       <r>   -2.5349    1.0000 </r>
       <r>   -2.5231    1.0000 </r>
       <r>   -2.5119    1.0000 </r>
       <r>   -2.5106    1.0000 </r>
       <r>   -2.4868    1.0000 </r>
       <r>   -2.4585    1.0000 </r>
       <r>   -2.4407    1.0000 </r>
       <r>   -2.4359    1.0000 </r>
       <r>   -2.4179    1.0000 </r>
       <r>   -2.4106    1.0000 </r>
       <r>   -2.4099    1.0000 </r>
       <r>   -2.4018    1.0000 </r>
       <r>   -2.3872    1.0000 </r>
       <r>   -2.3673    1.0000 </r>
       <r>   -2.3635    1.0000 </r>
       <r>   -2.3607    1.0000 </r>
       <r>   -2.3323    1.0000 </r>
       <r>   -2.3160    1.0000 </r>
       <r>   -2.3155    1.0000 </r>
       <r>   -2.2959    1.0000 </r>
       <r>   -2.2816    1.0000 </r>
       <r>   -2.2753    1.0000 </r>
       <r>   -2.2695    1.0000 </r>
       <r>   -2.2673    1.0000 </r>
       <r>   -2.2500    1.0000 </r>
       <r>   -2.2486    1.0000 </r>
       <r>   -2.2268    1.0000 </r>
       <r>   -2.2165    1.0000 </r>
       <r>   -2.2033    1.0000 </r>
       <r>   -2.2006    1.0000 </r>
       <r>   -2.1939    1.0000 </r>
       <r>   -2.1830    1.0000 </r>
       <r>   -2.1785    1.0000 </r>
       <r>   -2.1780    1.0000 </r>
       <r>   -2.1685    1.0000 </r>
       <r>   -2.1574    1.0000 </r>
       <r>   -2.1525    1.0000 </r>
       <r>   -2.1475    1.0000 </r>
       <r>   -2.1328    1.0000 </r>
       <r>   -2.1317    1.0000 </r>
       <r>   -2.1239    1.0000 </r>
       <r>   -2.1163    1.0000 </r>
       <r>   -2.0984    1.0000 </r>
       <r>   -2.0963    1.0000 </r>
       <r>   -2.0929    1.0000 </r>
       <r>   -2.0856    1.0000 </r>
[...]
       <r>    4.4255    0.0000 </r>
       <r>    4.5291    0.0000 </r>
       <r>    4.5694    0.0000 </r>
       <r>    4.6240    0.0000 </r>
       <r>    4.6566    0.0000 </r>
       <r>    4.9445    0.0000 </r>
       <r>    4.9943    0.0000 </r>
       <r>    5.0360    0.0000 </r>
       <r>    5.0967    0.0000 </r>
       <r>    5.1004    0.0000 </r>
       <r>    5.1340    0.0000 </r>
       <r>    5.2271    0.0000 </r>
       <r>    5.2964    0.0000 </r>
       <r>    5.4322    0.0000 </r>
       <r>    5.6127    0.0000 </r>
       <r>    5.6183    0.0000 </r>
       <r>    5.7172    0.0000 </r>
       <r>    5.8492    0.0000 </r>
       <r>    5.9212    0.0000 </r>
       <r>    5.9452    0.0000 </r>
       <r>    5.9832    0.0000 </r>
       <r>    6.0130    0.0000 </r>
       <r>    6.0501    0.0000 </r>
      </set>
     </set>
    </set>
   </array>
  </eigenvalues>
  <separator name="orbital magnetization" >
   <v name="MAGDIPOLOUT">      0.00000000      0.00000000      0.00000000</v>
  </separator>
  <dos>
   <i name="efermi">     -0.44143273 </i>
   <total>
    <array>
     <dimension dim="1">gridpoints</dimension>
     <dimension dim="2">spin</dimension>
     <field>energy</field>
     <field>total</field>
     <field>integrated</field>
     <set>
      <set comment="spin 1">
       <r>   -16.6223     0.0000     0.0000 </r>
       <r>   -16.5418     0.0000     0.0000 </r>
       <r>   -16.4614     0.0000     0.0000 </r>
       <r>   -16.3810    -0.0000    -0.0000 </r>
       <r>   -16.3006    -0.0000    -0.0000 </r>
       <r>   -16.2201    -0.0000    -0.0000 </r>
       <r>   -16.1397    -0.0000    -0.0000 </r>
       <r>   -16.0593    -0.0000    -0.0000 </r>
       <r>   -15.9789    -0.0000    -0.0000 </r>
       <r>   -15.8985    -0.0000    -0.0000 </r>
       <r>   -15.8180    -0.0035    -0.0003 </r>
       <r>   -15.7376    -0.1285    -0.0106 </r>
       <r>   -15.6572    -0.7214    -0.0686 </r>
       <r>   -15.5768     3.9180     0.2465 </r>
       <r>   -15.4964    15.2332     1.4715 </r>
       <r>   -15.4159     7.3783     2.0649 </r>
       <r>   -15.3355    -0.5361     2.0218 </r>
       <r>   -15.2551    -0.2597     2.0009 </r>
       <r>   -15.1747    -0.0109     2.0000 </r>
       <r>   -15.0943    -0.0001     2.0000 </r>
       <r>   -15.0138    -0.0000     2.0000 </r>
       <r>   -14.9334    -0.0000     2.0000 </r>
       <r>   -14.8530    -0.0000     2.0000 </r>
       <r>   -14.7726     0.0000     2.0000 </r>
       <r>   -14.6922     0.0000     2.0000 </r>
       <r>   -14.6117     0.0000     2.0000 </r>
       <r>   -14.5313     0.0000     2.0000 </r>
       <r>   -14.4509     0.0000     2.0000 </r>
       <r>   -14.3705     0.0000     2.0000 </r>
       <r>   -14.2901     0.0000     2.0000 </r>
       <r>   -14.2096     0.0000     2.0000 </r>
       <r>   -14.1292     0.0000     2.0000 </r>
       <r>   -14.0488     0.0000     2.0000 </r>
       <r>   -13.9684     0.0000     2.0000 </r>
       <r>   -13.8880     0.0000     2.0000 </r>
       <r>   -13.8075     0.0000     2.0000 </r>
       <r>   -13.7271     0.0000     2.0000 </r>
       <r>   -13.6467     0.0000     2.0000 </r>
       <r>   -13.5663     0.0000     2.0000 </r>
       <r>   -13.4858     0.0000     2.0000 </r>
       <r>   -13.4054     0.0000     2.0000 </r>
       <r>   -13.3250     0.0000     2.0000 </r>
       <r>   -13.2446     0.0000     2.0000 </r>
       <r>   -13.1642     0.0000     2.0000 </r>
       <r>   -13.0837     0.0000     2.0000 </r>
       <r>   -13.0033     0.0000     2.0000 </r>
       <r>   -12.9229     0.0000     2.0000 </r>
       <r>   -12.8425     0.0000     2.0000 </r>
       <r>   -12.7621     0.0000     2.0000 </r>
       <r>   -12.6816     0.0000     2.0000 </r>
       <r>   -12.6012     0.0000     2.0000 </r>
       <r>   -12.5208     0.0000     2.0000 </r>
       <r>   -12.4404     0.0000     2.0000 </r>
       <r>   -12.3600     0.0000     2.0000 </r>
       <r>   -12.2795     0.0000     2.0000 </r>
       <r>   -12.1991     0.0000     2.0000 </r>
       <r>   -12.1187     0.0000     2.0000 </r>
       <r>   -12.0383     0.0000     2.0000 </r>
       <r>   -11.9579     0.0000     2.0000 </r>
       <r>   -11.8774     0.0000     2.0000 </r>
       <r>   -11.7970     0.0000     2.0000 </r>
       <r>   -11.7166     0.0000     2.0000 </r>
       <r>   -11.6362     0.0000     2.0000 </r>
       <r>   -11.5558     0.0000     2.0000 </r>
       <r>   -11.4753     0.0000     2.0000 </r>
       <r>   -11.3949     0.0000     2.0000 </r>
       <r>   -11.3145     0.0000     2.0000 </r>
       <r>   -11.2341     0.0000     2.0000 </r>
       <r>   -11.1536     0.0000     2.0000 </r>
       <r>   -11.0732     0.0000     2.0000 </r>
       <r>   -10.9928     0.0000     2.0000 </r>
       <r>   -10.9124     0.0000     2.0000 </r>
       <r>   -10.8320     0.0000     2.0000 </r>
       <r>   -10.7515     0.0000     2.0000 </r>
       <r>   -10.6711     0.0000     2.0000 </r>
       <r>   -10.5907     0.0000     2.0000 </r>
       <r>   -10.5103     0.0000     2.0000 </r>
       <r>   -10.4299     0.0000     2.0000 </r>
       <r>   -10.3494     0.0000     2.0000 </r>
       <r>   -10.2690     0.0000     2.0000 </r>
       <r>   -10.1886     0.0000     2.0000 </r>
       <r>   -10.1082    -0.0000     2.0000 </r>
       <r>   -10.0278    -0.0000     2.0000 </r>
       <r>    -9.9473    -0.0000     2.0000 </r>
       <r>    -9.8669    -0.0000     2.0000 </r>
       <r>    -9.7865    -0.0000     2.0000 </r>
       <r>    -9.7061    -0.0000     2.0000 </r>
       <r>    -9.6257    -0.0000     2.0000 </r>
       <r>    -9.5452    -0.0001     2.0000 </r>
       <r>    -9.4648    -0.0069     1.9994 </r>
       <r>    -9.3844    -0.0681     1.9940 </r>
       <r>    -9.3040     0.1778     2.0083 </r>
       <r>    -9.2236     1.4223     2.1226 </r>
       <r>    -9.1431     0.7067     2.1795 </r>
       <r>    -9.0627     2.5196     2.3821 </r>
       <r>    -8.9823    10.0670     3.1917 </r>
       <r>    -8.9019     5.0513     3.5979 </r>
       <r>    -8.8214    -0.3655     3.5685 </r>
       <r>    -8.7410    -0.4831     3.5297 </r>
       <r>    -8.6606     0.3786     3.5601 </r>
       <r>    -8.5802     7.2414     4.1425 </r>
       <r>    -8.4998     8.1000     4.7939 </r>
       <r>    -8.4193     3.1199     5.0448 </r>
       <r>    -8.3389     9.5118     5.8097 </r>
       <r>    -8.2585     5.5976     6.2599 </r>
       <r>    -8.1781    -0.2522     6.2396 </r>
       <r>    -8.0977    -0.2067     6.2230 </r>
       <r>    -8.0172    -0.0351     6.2202 </r>
       <r>    -7.9368    -0.4245     6.1860 </r>
       <r>    -7.8564    -0.2138     6.1688 </r>
       <r>    -7.7760    11.0021     7.0536 </r>
       <r>    -7.6956    18.9688     8.5791 </r>
       <r>    -7.6151     5.1455     8.9929 </r>
       <r>    -7.5347     0.6139     9.0423 </r>
       <r>    -7.4543     0.1730     9.0562 </r>
       <r>    -7.3739     5.3091     9.4832 </r>
       <r>    -7.2935    18.9833    11.0098 </r>
       <r>    -7.2130    14.7075    12.1926 </r>
       <r>    -7.1326     1.0673    12.2784 </r>
       <r>    -7.0522    -0.7299    12.2197 </r>
       <r>    -6.9718    -0.7369    12.1605 </r>
       <r>    -6.8914     2.0635    12.3264 </r>
       <r>    -6.8109    14.8717    13.5224 </r>
       <r>    -6.7305    16.3804    14.8397 </r>
       <r>    -6.6501    18.1194    16.2969 </r>
       <r>    -6.5697    24.4817    18.2657 </r>
       <r>    -6.4893     5.9097    18.7410 </r>
       <r>    -6.4088    -0.7782    18.6784 </r>
       <r>    -6.3284     7.7214    19.2994 </r>
       <r>    -6.2480    15.2498    20.5258 </r>
       <r>    -6.1676    13.4659    21.6087 </r>
       <r>    -6.0871     2.3187    21.7952 </r>
       <r>    -6.0067     0.8652    21.8648 </r>
       <r>    -5.9263     8.4862    22.5472 </r>
       <r>    -5.8459     9.3526    23.2994 </r>
       <r>    -5.7655    24.0174    25.2309 </r>
       <r>    -5.6850    41.3913    28.5596 </r>
       <r>    -5.6046    29.5351    30.9348 </r>
       <r>    -5.5242    17.5263    32.3443 </r>
       <r>    -5.4438    14.2460    33.4900 </r>
       <r>    -5.3634     7.8544    34.1216 </r>
       <r>    -5.2829    41.7773    37.4814 </r>
       <r>    -5.2025    57.1999    42.0814 </r>
       <r>    -5.1221    45.5275    45.7428 </r>
       <r>    -5.0417    69.8297    51.3585 </r>
       <r>    -4.9613    65.0809    56.5924 </r>
       <r>    -4.8808    50.8530    60.6820 </r>
       <r>    -4.8004    49.2066    64.6392 </r>
       <r>    -4.7200    58.7990    69.3679 </r>
       <r>    -4.6396    97.8177    77.2345 </r>
       <r>    -4.5592   106.5953    85.8069 </r>
       <r>    -4.4787    91.7082    93.1822 </r>
       <r>    -4.3983    86.0225   100.1001 </r>
       <r>    -4.3179    93.5853   107.6263 </r>
       <r>    -4.2375    75.5308   113.7006 </r>
       <r>    -4.1571    83.3520   120.4038 </r>
       <r>    -4.0766    75.8007   126.4997 </r>
       <r>    -3.9962    75.7870   132.5946 </r>
       <r>    -3.9158   148.7927   144.5606 </r>
       <r>    -3.8354   149.6240   156.5934 </r>
       <r>    -3.7549    90.5883   163.8786 </r>
       <r>    -3.6745    89.4788   171.0745 </r>
       <r>    -3.5941   140.7474   182.3935 </r>
       <r>    -3.5137   176.9198   196.6215 </r>
       <r>    -3.4333   141.8750   208.0312 </r>
       <r>    -3.3528   170.2273   221.7210 </r>
       <r>    -3.2724   216.4802   239.1305 </r>
       <r>    -3.1920   233.0413   257.8718 </r>
       <r>    -3.1116   235.8521   276.8392 </r>
       <r>    -3.0312   204.3672   293.2745 </r>
       <r>    -2.9507   138.3939   304.4043 </r>
       <r>    -2.8703   113.3428   313.5194 </r>
       <r>    -2.7899   125.2449   323.5917 </r>
       <r>    -2.7095   160.9798   336.5378 </r>
       <r>    -2.6291   218.7012   354.1259 </r>
       <r>    -2.5486   243.9366   373.7434 </r>
       <r>    -2.4682   191.7592   389.1648 </r>
       <r>    -2.3878   154.7954   401.6135 </r>
       <r>    -2.3074   161.7111   414.6185 </r>
       <r>    -2.2270   191.4111   430.0119 </r>
       <r>    -2.1465   249.2803   450.0591 </r>
       <r>    -2.0661   309.6356   474.9602 </r>
       <r>    -1.9857   244.6785   494.6374 </r>
       <r>    -1.9053    97.3627   502.4674 </r>
       <r>    -1.8249    51.3810   506.5995 </r>
       <r>    -1.7444    37.3624   509.6042 </r>
       <r>    -1.6640    29.8744   512.0067 </r>
       <r>    -1.5836    32.3112   514.6052 </r>
       <r>    -1.5032    38.7286   517.7198 </r>
       <r>    -1.4227    28.1268   519.9818 </r>
       <r>    -1.3423    16.7001   521.3248 </r>
       <r>    -1.2619     7.8023   521.9523 </r>
       <r>    -1.1815     0.9377   522.0277 </r>
       <r>    -1.1011    11.8006   522.9767 </r>
       <r>    -1.0206    16.4975   524.3034 </r>
       <r>    -0.9402     8.5971   524.9948 </r>
       <r>    -0.8598    15.3985   526.2332 </r>
       <r>    -0.7794    22.2772   528.0247 </r>
       <r>    -0.6990    12.8870   529.0611 </r>
       <r>    -0.6185    13.7198   530.1645 </r>
       <r>    -0.5381    16.0501   531.4552 </r>
       <r>    -0.4577    33.2220   534.1270 </r>
       <r>    -0.3773    53.2041   538.4057 </r>
       <r>    -0.2969    23.1021   540.2636 </r>
       <r>    -0.2164    13.7177   541.3667 </r>
       <r>    -0.1360    19.0373   542.8977 </r>
       <r>    -0.0556    16.1007   544.1926 </r>
       <r>     0.0248    10.2461   545.0166 </r>
       <r>     0.1052     3.2986   545.2818 </r>
       <r>     0.1857     5.9042   545.7566 </r>
       <r>     0.2661     2.7194   545.9753 </r>
       <r>     0.3465     3.6332   546.2675 </r>
       <r>     0.4269    10.2703   547.0935 </r>
       <r>     0.5073     9.9247   547.8916 </r>
       <r>     0.5878    18.1589   549.3520 </r>
       <r>     0.6682    24.6569   551.3349 </r>
       <r>     0.7486    31.0406   553.8312 </r>
       <r>     0.8290    24.1585   555.7740 </r>
       <r>     0.9094    19.1279   557.3123 </r>
       <r>     0.9899    29.3510   559.6727 </r>
       <r>     1.0703    16.2955   560.9832 </r>
       <r>     1.1507     9.3044   561.7315 </r>
       <r>     1.2311    13.3760   562.8072 </r>
       <r>     1.3116    18.5458   564.2987 </r>
       <r>     1.3920    15.4016   565.5373 </r>
       <r>     1.4724     5.3924   565.9709 </r>
       <r>     1.5528     7.2772   566.5562 </r>
       <r>     1.6332     8.8125   567.2649 </r>
       <r>     1.7137    18.8687   568.7823 </r>
       <r>     1.7941    31.7938   571.3392 </r>
       <r>     1.8745    16.4010   572.6582 </r>
       <r>     1.9549    18.2134   574.1229 </r>
       <r>     2.0353    25.9785   576.2121 </r>
       <r>     2.1158    15.9162   577.4921 </r>
       <r>     2.1962    13.6396   578.5890 </r>
       <r>     2.2766     8.1092   579.2411 </r>
       <r>     2.3570     5.3578   579.6720 </r>
       <r>     2.4374     9.0951   580.4035 </r>
       <r>     2.5179     7.5230   581.0085 </r>
       <r>     2.5983     9.6445   581.7841 </r>
       <r>     2.6787    20.5543   583.4371 </r>
       <r>     2.7591    11.3836   584.3526 </r>
       <r>     2.8395     9.0212   585.0780 </r>
       <r>     2.9200     9.8241   585.8681 </r>
       <r>     3.0004     4.0493   586.1938 </r>
       <r>     3.0808     8.6232   586.8872 </r>
       <r>     3.1612    10.7301   587.7502 </r>
       <r>     3.2416    13.7262   588.8540 </r>
       <r>     3.3221    13.4141   589.9328 </r>
       <r>     3.4025    11.7618   590.8787 </r>
       <r>     3.4829     9.0608   591.6074 </r>
       <r>     3.5633    10.6036   592.4601 </r>
       <r>     3.6438    15.2109   593.6834 </r>
       <r>     3.7242    20.8739   595.3621 </r>
       <r>     3.8046    13.9994   596.4879 </r>
       <r>     3.8850    12.6440   597.5047 </r>
       <r>     3.9654    15.1753   598.7252 </r>
       <r>     4.0459    11.4684   599.6474 </r>
       <r>     4.1263     1.6289   599.7784 </r>
       <r>     4.2067     0.7523   599.8389 </r>
       <r>     4.2871    14.0209   600.9665 </r>
       <r>     4.3675    18.2187   602.4317 </r>
       <r>     4.4480    12.6592   603.4497 </r>
       <r>     4.5284    25.2392   605.4795 </r>
       <r>     4.6088    33.3419   608.1609 </r>
       <r>     4.6892    27.8380   610.3996 </r>
       <r>     4.7696    15.5197   611.6477 </r>
       <r>     4.8501     9.3535   612.3999 </r>
       <r>     4.9305    13.8395   613.5129 </r>
       <r>     5.0109    22.9224   615.3563 </r>
       <r>     5.0913    41.9206   618.7276 </r>
       <r>     5.1717    42.9390   622.1808 </r>
       <r>     5.2522    25.4947   624.2311 </r>
       <r>     5.3326    20.4005   625.8717 </r>
       <r>     5.4130    26.6279   628.0132 </r>
       <r>     5.4934    26.3432   630.1317 </r>
       <r>     5.5738    21.0707   631.8262 </r>
       <r>     5.6543    24.2629   633.7775 </r>
       <r>     5.7347    16.4298   635.0988 </r>
       <r>     5.8151    20.2974   636.7311 </r>
       <r>     5.8955    27.4409   638.9379 </r>
       <r>     5.9760    27.4478   641.1453 </r>
       <r>     6.0564    23.0622   642.9999 </r>
       <r>     6.1368    15.8411   644.2739 </r>
       <r>     6.2172    12.4339   645.2738 </r>
       <r>     6.2976    15.2827   646.5029 </r>
       <r>     6.3781    14.2538   647.6492 </r>
       <r>     6.4585     4.6292   648.0215 </r>
       <r>     6.5389    -0.0367   648.0185 </r>
       <r>     6.6193    -0.2095   648.0017 </r>
       <r>     6.6997    -0.0203   648.0000 </r>
       <r>     6.7802    -0.0005   648.0000 </r>
       <r>     6.8606    -0.0000   648.0000 </r>
       <r>     6.9410    -0.0000   648.0000 </r>
       <r>     7.0214    -0.0000   648.0000 </r>
       <r>     7.1018     0.0000   648.0000 </r>
       <r>     7.1823     0.0000   648.0000 </r>
       <r>     7.2627     0.0000   648.0000 </r>
       <r>     7.3431     0.0000   648.0000 </r>
       <r>     7.4235     0.0000   648.0000 </r>
       <r>     7.5039     0.0000   648.0000 </r>
      </set>
     </set>
    </array>
   </total>
  </dos>
 </calculation>
 <structure name="finalpos" >
  <crystal>
   <varray name="basis" >
    <v>      10.11850195       0.00000000       0.00000000 </v>
    <v>      -5.05925097       8.76287974       0.00000000 </v>
    <v>       0.00000000       0.00000000      18.58887505 </v>
   </varray>
   <i name="volume">   1648.22379336 </i>
   <varray name="rec_basis" >
    <v>       0.09882886       0.05705887      -0.00000000 </v>
    <v>       0.00000000       0.11411774      -0.00000000 </v>
    <v>       0.00000000       0.00000000       0.05379562 </v>
   </varray>
  </crystal>
  <varray name="positions" >
   <v>       0.99904304       0.00090621       0.61211041 </v>
   <v>       0.00015586       0.25029098       0.61424211 </v>
   <v>       0.99785550       0.49818244       0.61332683 </v>
   <v>       0.99577386       0.74883338       0.61118244 </v>
   <v>       0.24461825       0.00349658       0.61785775 </v>
   <v>       0.25038876       0.25251671       0.61203141 </v>
   <v>       0.25028306       0.49816929       0.61333556 </v>
   <v>       0.24714372       0.74430019       0.60079812 </v>
   <v>       0.50889131       0.00349596       0.61783904 </v>
   <v>       0.50343632       0.25687246       0.61055064 </v>
   <v>       0.50086962       0.50136773       0.61349391 </v>
   <v>       0.50303909       0.74882950       0.61118529 </v>
   <v>       0.75186545       0.00092911       0.61210956 </v>
   <v>       0.75212443       0.25252145       0.61203018 </v>
   <v>       0.75047971       0.50135286       0.61349339 </v>
   <v>       0.75038618       0.75071074       0.61329459 </v>
   <v>       0.08333834       0.16669679       0.38889480 </v>
   <v>       0.08329087       0.41658144       0.38881589 </v>
   <v>       0.08324173       0.66661886       0.38874480 </v>
   <v>       0.08328270       0.91671784       0.38880154 </v>
   <v>       0.33333537       0.16668690       0.38887502 </v>
   <v>       0.33334319       0.41662617       0.38884724 </v>
   <v>       0.33337781       0.66661929       0.38874475 </v>
   <v>       0.33337641       0.91675291       0.38874120 </v>
   <v>       0.58335169       0.16668593       0.38887505 </v>
   <v>       0.58336653       0.41667220       0.38889273 </v>
   <v>       0.58337471       0.66665318       0.38883971 </v>
   <v>       0.58343639       0.91671784       0.38880153 </v>
   <v>       0.83335869       0.16669603       0.38889492 </v>
   <v>       0.83328481       0.41662614       0.38884732 </v>
   <v>       0.83327927       0.66665341       0.38883985 </v>
   <v>       0.83336484       0.91667708       0.38887599 </v>
   <v>       0.16663061       0.08335862       0.49997106 </v>
   <v>       0.16663104       0.33320961       0.49993484 </v>
   <v>       0.16617957       0.58235651       0.49922243 </v>
   <v>       0.16616722       0.83380641       0.49920896 </v>
   <v>       0.41681461       0.08362931       0.49981018 </v>
   <v>       0.41664571       0.33340356       0.50001824 </v>
   <v>       0.41682090       0.58318171       0.49982316 </v>
   <v>       0.41763983       0.83380691       0.49920845 </v>
   <v>       0.66672856       0.08335851       0.49997100 </v>
   <v>       0.66675827       0.33340352       0.50001867 </v>
   <v>       0.66664242       0.58329966       0.49995707 </v>
   <v>       0.66688149       0.83338414       0.49988368 </v>
   <v>       0.91672152       0.08343114       0.50002006 </v>
   <v>       0.91657885       0.33320917       0.49993500 </v>
   <v>       0.91636061       0.58318032       0.49982338 </v>
   <v>       0.91650190       0.83338303       0.49988432 </v>
   <v>       0.35847512       0.96690304       0.68982277 </v>
   <v>       0.39203977       0.03392248       0.73480591 </v>
   <v>       0.24171629       0.73359511       0.72654997 </v>
  </varray>
 </structure>
</modeling>
