Bulk Frequency (Finite Difference)      
           1
    10.118502    0.000000    0.000000
    -5.059251    8.762880    0.000000
     0.000000    0.000000   18.588875
   Cu   N    H 
    48     1     2
Direct configuration=     1
   0.99904304  0.00090621  0.61211041
   0.00015586  0.25029098  0.61424211
   0.99785550  0.49818244  0.61332683
   0.99577386  0.74883338  0.61118244
   0.24461825  0.00349658  0.61785775
   0.25038876  0.25251671  0.61203141
   0.25028306  0.49816929  0.61333556
   0.24714372  0.74430019  0.60079812
   0.50889131  0.00349596  0.61783904
   0.50343632  0.25687246  0.61055064
   0.50086962  0.50136773  0.61349391
   0.50303909  0.74882950  0.61118529
   0.75186545  0.00092911  0.61210956
   0.75212443  0.25252145  0.61203018
   0.75047971  0.50135286  0.61349339
   0.75038618  0.75071074  0.61329459
   0.08333834  0.16669679  0.38889480
   0.08329087  0.41658144  0.38881589
   0.08324173  0.66661886  0.38874480
   0.08328270  0.91671784  0.38880154
   0.33333537  0.16668690  0.38887502
   0.33334319  0.41662617  0.38884724
   0.33337781  0.66661929  0.38874475
   0.33337641  0.91675291  0.38874120
   0.58335169  0.16668593  0.38887505
   0.58336653  0.41667220  0.38889273
   0.58337471  0.66665318  0.38883971
   0.58343639  0.91671784  0.38880153
   0.83335869  0.16669603  0.38889492
   0.83328481  0.41662614  0.38884732
   0.83327927  0.66665341  0.38883985
   0.83336484  0.91667708  0.38887599
   0.16663061  0.08335862  0.49997106
   0.16663104  0.33320961  0.49993484
   0.16617957  0.58235651  0.49922243
   0.16616722  0.83380641  0.49920896
   0.41681461  0.08362931  0.49981018
   0.41664571  0.33340356  0.50001824
   0.41682090  0.58318171  0.49982316
   0.41763983  0.83380691  0.49920845
   0.66672856  0.08335851  0.49997100
   0.66675827  0.33340352  0.50001867
   0.66664242  0.58329966  0.49995707
   0.66688149  0.83338414  0.49988368
   0.91672152  0.08343114  0.50002006
   0.91657885  0.33320917  0.49993500
   0.91636061  0.58318032  0.49982338
   0.91650190  0.83338303  0.49988432
   0.35847512  0.96690304  0.68982277
   0.39203977  0.03392248  0.73480591
   0.24171629  0.73359511  0.72654997
